#INFO: **** input file is /scratch/local/jobs/25203339/mcpdft.py ****
#!/usr/bin/env python


import numpy as np
import pyscf
from pyscf import gto, scf, mcpdft, lib
from pyscf.mcscf import avas, chkfile
from mrh.my_pyscf.fci import csf_solver
from mrh.my_pyscf.gto import ANO_RCC_VDZP
import sys
def struct(xyz,spin=0,charge=0, basis=ANO_RCC_VDZP):
    mol = gto.Mole()
    mol.atom = xyz
    mol.basis = ANO_RCC_VDZP 
    mol.spin=spin
    mol.charge=charge
    mol.verbose=4
    mol.max_memory = 100000
    return mol

xyz_file=sys.argv[1]
lanth=sys.argv[2]
NUM_ORBITALS=int(sys.argv[3])
NUM_ELEC=int(sys.argv[4])
CHARGE=int(sys.argv[5])
IS_TEST=False


max_alpha_e = min(NUM_ELEC, NUM_ORBITALS)
min_beta_e = max(0, NUM_ELEC - NUM_ORBITALS)
mol=struct(xyz_file, spin=int(max_alpha_e-min_beta_e), charge=CHARGE)
mol.build()
mf = scf.newton(scf.UHF(mol).sfx2c1e())
mf.max_cycle = 100
mf.run()
mo_coeff = avas.kernel(mf, ['{0} 4f'.format(lanth), '{0} 5d'.format(lanth), '{0} 6s'.format(lanth)], minao=mol.basis)[2] 

from pyscf.tools import molden
mc = mcpdft.CASSCF(mf, 'tPBE', NUM_ORBITALS, (max_alpha_e, min_beta_e))
mc.mo_coeff = mo_coeff 
molden.from_mo(mol, '{0}_avas.molden'.format(xyz_file[:-4]), mc.mo_coeff[:, mc.ncore:mc.ncore+mc.ncas])
for i in range(int(np.floor((max_alpha_e-min_beta_e)/2)) + 1):
    with lib.temporary_env(mf):
        num_alpha = max_alpha_e - i
        num_beta = NUM_ELEC - num_alpha
        s = (num_alpha - num_beta) / 2
        
        mc = mcpdft.CASSCF(mf, 'tPBE', NUM_ORBITALS, (num_alpha, num_beta ))
        solver = csf_solver(mol, smult=int(2*s+1))
        mc.fcisolver = solver

        mc.mo_coeff = mo_coeff
        mc.max_cycle_macro = 150
        mc.verbose=4
       
        mc.kernel()
        mc.analyze()
       
        molden.from_mo(mol, '{0}_spin{1}.molden'.format(xyz_file[:-4], int(2*s)), mc.mo_coeff[:, mc.ncore:mc.ncore+mc.ncas])
        mo_coeff = mc.mo_coeff
        chkfile.dump_mcscf(mc, '{0}_spin{1}.chkfile'.format(xyz_file[:-4], int(2*s)))
#INFO: ******************** input file end ********************


System: uname_result(system='Linux', node='midway3-0507.rcc.local', release='4.18.0-305.3.1.el8.x86_64', version='#1 SMP Tue Jun 1 16:14:33 UTC 2021', machine='x86_64', processor='x86_64')  Threads 32
Python 3.6.15 | packaged by conda-forge | (default, Dec  3 2021, 18:49:41) 
[GCC 9.4.0]
numpy 1.19.5  scipy 1.5.3  h5py 2.7.1
Date: Sat Nov  2 19:29:21 2024
PySCF version 2.7.0
PySCF path  /home/jzhou103/joshua/pyscf
GIT HEAD (branch master) 410d9608a73ad3a507b3008a6f68549288ebfc33
mrh path  /home/jzhou103/joshua/mrh
GIT HEAD (branch master) 538e93a8cc7d8bc070057c0651427d7c3da89d45

[ENV] PYSCF_EXT_PATH /home/jzhou103/joshua/pyscf-forge
[CONFIG] conf_file None
[INPUT] verbose = 4
[INPUT] num. atoms = 29
[INPUT] num. electrons = 195
[INPUT] charge = 0
[INPUT] spin (= nelec alpha-beta = 2S) = 11
[INPUT] symmetry False subgroup None
[INPUT] Mole.unit = angstrom
[INPUT] Symbol           X                Y                Z      unit          X                Y                Z       unit  Magmom
[INPUT]  1 Er     0.180102682374  -0.076690868262   0.125664886518 AA    0.340344743986  -0.144924737271   0.237472218993 Bohr   0.0
[INPUT]  2 C     -4.337629750509   5.175189442746   0.724924866815 AA   -8.196932258227   9.779690689531   1.369909459167 Bohr   0.0
[INPUT]  3 C     -3.186118218968   5.151604752916   1.509403181598 AA   -6.020890834337   9.735122085019   2.852358624767 Bohr   0.0
[INPUT]  4 C     -2.294882351365   4.092130019459   1.400471372453 AA   -4.336699132177   7.733005002889   2.646507339229 Bohr   0.0
[INPUT]  5 C     -2.555646718785   3.050013777494   0.507295060324 AA   -4.829472369646   5.763690715613   0.958648728357 Bohr   0.0
[INPUT]  6 C     -3.712044508677   3.074744825440  -0.275930057367 AA   -7.014747483595   5.810425623006  -0.521432237959 Bohr   0.0
[INPUT]  7 C     -4.599803668490   4.137352231192  -0.167435571573 AA   -8.692369160217   7.818462597810  -0.316407373783 Bohr   0.0
[INPUT]  8 C     -1.602894185417   1.924253765239   0.386983027153 AA   -3.029031017096   3.636312610465   0.731291936174 Bohr   0.0
[INPUT]  9 O     -1.841947545526   0.950855648791  -0.399556417774 AA   -3.480776396860   1.796856760210  -0.755052200906 Bohr   0.0
[INPUT] 10 O     -0.520769782080   1.916290011074   1.064942101301 AA   -0.984112262081   3.621263296170   2.012448909978 Bohr   0.0
[INPUT] 11 H     -5.031000733927   6.003067663741   0.808911590991 AA   -9.507213519608  11.344153791702   1.528621365960 Bohr   0.0
[INPUT] 12 H     -2.985375374960   5.958807748381   2.202531278370 AA   -5.641541837695  11.260514673377   4.162180896907 Bohr   0.0
[INPUT] 13 H     -1.394647191931   4.055190674398   1.997914192775 AA   -2.635501233144   7.663199757502   3.775510644727 Bohr   0.0
[INPUT] 14 H     -3.896881615572   2.259629750398  -0.961655632763 AA   -7.364038993283   4.270081371172  -1.817265772068 Bohr   0.0
[INPUT] 15 H     -5.494908766064   4.159362500404  -0.776142004579 AA  -10.383872647332   7.860055978551  -1.466695822426 Bohr   0.0
[INPUT] 16 N     -0.657226212252  -1.662907671986   1.772327597427 AA   -1.241977543041  -3.142440070491   3.349213762146 Bohr   0.0
[INPUT] 17 O     -1.190057624752  -2.384513929727   2.575530517405 AA   -2.248882983232  -4.506078267395   4.867047303355 Bohr   0.0
[INPUT] 18 O      0.543061980826  -1.970560707563   1.353191928370 AA    1.026238412424  -3.723820049124   2.557162138592 Bohr   0.0
[INPUT] 19 N      1.523149443289   0.312871753782  -1.520989548661 AA    2.878335294599   0.591241926761  -2.874253685296 Bohr   0.0
[INPUT] 20 N      2.253397949829   0.538926143350  -2.450803851713 AA    4.258304974833   1.018422812300  -4.631348064768 Bohr   0.0
[INPUT] 21 N      2.948448798318   0.753477330471  -3.332829407876 AA    5.571760721123   1.423865795658  -6.298134800781 Bohr   0.0
[INPUT] 22 N     -0.994387634969  -1.667022412112  -1.396208634096 AA   -1.879120291745  -3.150215802404  -2.638451931194 Bohr   0.0
[INPUT] 23 H     -1.917479028022  -1.274346189107  -1.561106677684 AA   -3.623510212558  -2.408165285296  -2.950064072053 Bohr   0.0
[INPUT] 24 H     -1.118025366006  -2.614933617280  -1.053891210782 AA   -2.112761742068  -4.941508370578  -1.991565753465 Bohr   0.0
[INPUT] 25 H     -0.524890055294  -1.726121542117  -2.294591176604 AA   -0.991898450014  -3.261896972314  -4.336148891625 Bohr   0.0
[INPUT] 26 N      2.031486993475   0.644668788681   1.626788442012 AA    3.838954043283   1.218247451661   3.074184618011 Bohr   0.0
[INPUT] 27 H      2.870547381420   0.880541406146   1.106260101002 AA    5.424548378471   1.663982098955   2.090528613427 Bohr   0.0
[INPUT] 28 H      2.283544933992  -0.062288963997   2.311080074728 AA    4.315274518383  -0.117709082538   4.367308393175 Bohr   0.0
[INPUT] 29 H      1.737276170045   1.478507668050   2.127419972232 AA    3.282976164118   2.793974565684   4.020241099448 Bohr   0.0

nuclear repulsion = 2516.9434790704
number of shells = 78
number of NR pGTOs = 1536
number of NR cGTOs = 361
basis = {'H': 'ano@2s1p', 'He': 'ano@2s1p', 'Li': 'ano@3s2p1d', 'Be': 'ano@3s2p1d', 'B': 'ano@3s2p1d', 'C': 'ano@3s2p1d', 'N': 'ano@3s2p1d', 'O': 'ano@3s2p1d', 'F': 'ano@3s2p1d', 'Ne': 'ano@3s2p1d', 'Na': 'ano@4s3p1d', 'Mg': 'ano@4s3p1d', 'Al': 'ano@4s3p1d', 'Si': 'ano@4s3p1d', 'P': 'ano@4s3p1d', 'S': 'ano@4s3p1d', 'Cl': 'ano@4s3p1d', 'Ar': 'ano@4s3p1d', 'K': 'ano@5s4p1d', 'Ca': 'ano@5s4p1d', 'Sc': 'ano@5s4p2d1f', 'Ti': 'ano@5s4p2d1f', 'V': 'ano@5s4p2d1f', 'Cr': 'ano@5s4p2d1f', 'Mn': 'ano@5s4p2d1f', 'Fe': 'ano@5s4p2d1f', 'Co': 'ano@5s4p2d1f', 'Ni': 'ano@5s4p2d1f', 'Cu': 'ano@5s4p2d1f', 'Zn': 'ano@5s4p2d1f', 'Ga': 'ano@5s4p2d', 'Ge': 'ano@5s4p2d', 'As': 'ano@5s4p2d', 'Se': 'ano@5s4p2d', 'Br': 'ano@5s4p2d', 'Kr': 'ano@5s4p2d', 'Rb': 'ano@6s5p2d', 'Sr': 'ano@6s5p2d', 'Y': 'ano@6s5p3d1f', 'Zr': 'ano@6s5p3d1f', 'Nb': 'ano@6s5p3d1f', 'Mo': 'ano@6s5p3d1f', 'Tc': 'ano@6s5p3d1f', 'Ru': 'ano@6s5p3d1f', 'Rh': 'ano@6s5p3d1f', 'Pd': 'ano@6s5p3d1f', 'Ag': 'ano@6s5p3d1f', 'Cd': 'ano@6s5p3d1f', 'In': 'ano@6s5p3d1f', 'Sn': 'ano@6s5p3d1f', 'Sb': 'ano@6s5p3d1f', 'Te': 'ano@6s5p3d1f', 'I': 'ano@6s5p3d1f', 'Xe': 'ano@6s5p3d1f', 'Cs': 'ano@7s6p3d1f', 'Ba': 'ano@7s6p3d1f', 'La': 'ano@7s6p4d2f1g', 'Ce': 'ano@7s6p4d2f1g', 'Pr': 'ano@7s6p4d2f1g', 'Nd': 'ano@7s6p4d2f1g', 'Pm': 'ano@7s6p4d2f1g', 'Sm': 'ano@7s6p4d2f1g', 'Eu': 'ano@7s6p4d2f1g', 'Gd': 'ano@7s6p4d2f1g', 'Tb': 'ano@7s6p4d2f1g', 'Dy': 'ano@7s6p4d2f1g', 'Ho': 'ano@7s6p4d2f1g', 'Er': 'ano@7s6p4d2f1g', 'Tm': 'ano@7s6p4d2f1g', 'Yb': 'ano@7s6p4d2f1g', 'Lu': 'ano@7s6p4d2f1g', 'Hf': 'ano@7s6p4d2f1g', 'Ta': 'ano@7s6p4d2f1g', 'W': 'ano@7s6p4d2f1g', 'Re': 'ano@7s6p4d2f1g', 'Os': 'ano@7s6p4d2f1g', 'Ir': 'ano@7s6p4d2f', 'Pt': 'ano@7s6p4d2f', 'Au': 'ano@7s6p4d2f', 'Hg': 'ano@7s6p4d2f', 'Tl': 'ano@7s6p4d2f1g', 'Pb': 'ano@7s6p4d2f1g', 'Bi': 'ano@7s6p4d2f1g', 'Po': 'ano@7s6p4d2f1g', 'At': 'ano@7s6p4d2f1g', 'Rn': 'ano@7s6p4d2f1g'}
ecp = {}
CPU time:         3.25




******** <class 'pyscf.soscf.newton_ah.SecondOrdersfX2C1eUHF'> ********
method = SecondOrdersfX2C1eUHF
initial guess = minao
damping factor = 0
level_shift factor = 0
DIIS = <class 'pyscf.scf.diis.CDIIS'>
diis_start_cycle = 1
diis_space = 8
diis_damp = 0
SCF conv_tol = 1e-09
SCF conv_tol_grad = None
SCF max_cycles = 100
direct_scf = True
direct_scf_tol = 1e-13
chkfile to save SCF result = /scratch/local/jobs/25203339/tmp5nl80j6a
max_memory 100000 MB (current use 89 MB)
number electrons alpha = 103  beta = 92


******** <class 'pyscf.x2c.sfx2c1e.SpinFreeX2CHelper'> ********
approx = 1e
xuncontract = 1
******** <class 'pyscf.x2c.sfx2c1e.sfX2C1eUHF'> Newton solver flags ********
SCF tol = 1e-09
conv_tol_grad = None
max. SCF cycles = 100
direct_scf = True
direct_scf_tol = 1e-13
chkfile to save SCF result = /scratch/local/jobs/25203339/tmp5nl80j6a
max_cycle_inner = 12
max_stepsize = 0.05
ah_start_tol = 1e+09
ah_level_shift = 0
ah_conv_tol = 1e-12
ah_lindep = 1e-14
ah_start_cycle = 1
ah_max_cycle = 40
ah_grad_trust_region = 2.5
kf_interval = 4
kf_trust_region = 5
canonicalization = True
max_memory 100000 MB (current use 89 MB)
Set conv_tol_grad to 3.16228e-05
  alpha nocc = 103  HOMO = 0.141642308012842  LUMO = 0.152624215259191
  beta  nocc = 92  HOMO = -0.184936231240852  LUMO = -0.0226586510619367

WARN: system HOMO 0.141642308012842 >= system LUMO -0.0226586510619367

Initial guess E= -13897.0498624435  |g|= 14.461
macro= 0  E= -13943.220906235  delta_E= -46.171  |g|= 8.61284  2 KF 11 JK
macro= 1  E= -13972.0606302674  delta_E= -28.8397  |g|= 3.87838  3 KF 15 JK
macro= 2  E= -13978.0632041066  delta_E= -6.00257  |g|= 1.34433  3 KF 15 JK
macro= 3  E= -13979.3360839553  delta_E= -1.27288  |g|= 0.550642  3 KF 16 JK
macro= 4  E= -13979.6611140299  delta_E= -0.32503  |g|= 0.204976  3 KF 18 JK
macro= 5  E= -13979.9483347603  delta_E= -0.287221  |g|= 0.209444  3 KF 12 JK
macro= 6  E= -13980.1020354052  delta_E= -0.153701  |g|= 0.0871672  4 KF 20 JK
macro= 7  E= -13980.1160783123  delta_E= -0.0140429  |g|= 0.145554  3 KF 13 JK
macro= 8  E= -13980.1365316706  delta_E= -0.0204534  |g|= 0.101453  2 KF 7 JK
macro= 9  E= -13980.1653566402  delta_E= -0.028825  |g|= 0.053091  3 KF 13 JK
macro= 10  E= -13980.1804100023  delta_E= -0.0150534  |g|= 0.00284589  4 KF 27 JK
macro= 11  E= -13980.1804748146  delta_E= -6.48123e-05  |g|= 0.0037859  1 KF 5 JK
macro= 12  E= -13980.1785356233  delta_E= 0.00193919  |g|= 0.00808395  2 KF 7 JK
macro= 13  E= -13980.182729833  delta_E= -0.00419421  |g|= 0.00749859  3 KF 24 JK
macro= 14  E= -13980.1830597642  delta_E= -0.000329931  |g|= 0.0126256  4 KF 24 JK
macro= 15  E= -13980.1766507535  delta_E= 0.00640901  |g|= 0.0119204  2 KF 7 JK
macro= 16  E= -13980.1840596778  delta_E= -0.00740892  |g|= 0.00217481  4 KF 28 JK
macro= 17  E= -13980.1840932708  delta_E= -3.3593e-05  |g|= 0.00447161  3 KF 16 JK
macro= 18  E= -13980.1846445419  delta_E= -0.000551271  |g|= 0.00959843  3 KF 16 JK
macro= 19  E= -13980.1848075054  delta_E= -0.000162963  |g|= 0.00369281  4 KF 27 JK
macro= 20  E= -13980.1848985011  delta_E= -9.09957e-05  |g|= 0.00433569  3 KF 17 JK
macro= 21  E= -13980.1849276116  delta_E= -2.91105e-05  |g|= 0.00168547  4 KF 26 JK
macro= 22  E= -13980.1849518056  delta_E= -2.41941e-05  |g|= 0.00224572  3 KF 17 JK
macro= 23  E= -13980.1849790525  delta_E= -2.72469e-05  |g|= 0.00326585  4 KF 25 JK
macro= 24  E= -13980.1850111884  delta_E= -3.21359e-05  |g|= 0.00210101  3 KF 16 JK
macro= 25  E= -13980.185038479  delta_E= -2.72905e-05  |g|= 0.00425204  3 KF 16 JK
macro= 26  E= -13980.1850593204  delta_E= -2.08414e-05  |g|= 0.00223114  3 KF 17 JK
macro= 27  E= -13980.1850789284  delta_E= -1.9608e-05  |g|= 0.00161963  4 KF 21 JK
macro= 28  E= -13980.1851036742  delta_E= -2.47458e-05  |g|= 0.0020223  3 KF 17 JK
macro= 29  E= -13980.1851236401  delta_E= -1.9966e-05  |g|= 0.00161899  3 KF 18 JK
macro= 30  E= -13980.185141478  delta_E= -1.78378e-05  |g|= 0.00183263  3 KF 17 JK
macro= 31  E= -13980.1851624283  delta_E= -2.09503e-05  |g|= 0.00241047  3 KF 18 JK
macro= 32  E= -13980.1851839446  delta_E= -2.15164e-05  |g|= 0.00153448  3 KF 17 JK
macro= 33  E= -13980.1852000326  delta_E= -1.60879e-05  |g|= 0.00203661  3 KF 18 JK
macro= 34  E= -13980.1852058739  delta_E= -5.84131e-06  |g|= 0.000968723  3 KF 18 JK
macro= 35  E= -13980.185209402  delta_E= -3.52807e-06  |g|= 0.00100607  3 KF 28 JK
macro= 36  E= -13980.1852123429  delta_E= -2.94093e-06  |g|= 0.000163575  4 KF 33 JK
macro= 37  E= -13980.1852138888  delta_E= -1.54588e-06  |g|= 0.000108804  4 KF 34 JK
macro= 38  E= -13980.1852140661  delta_E= -1.77275e-07  |g|= 0.000148379  2 KF 16 JK
macro= 39  E= -13980.1852151958  delta_E= -1.12968e-06  |g|= 0.000624205  4 KF 30 JK
macro= 40  E= -13980.185213049  delta_E= 2.14671e-06  |g|= 0.000341869  3 KF 30 JK
macro= 41  E= -13980.1852185435  delta_E= -5.49443e-06  |g|= 0.00014528  4 KF 33 JK
macro= 42  E= -13980.1852191142  delta_E= -5.7077e-07  |g|= 5.08561e-05  4 KF 35 JK
macro= 43  E= -13980.1852191404  delta_E= -2.62007e-08  |g|= 5.66384e-05  1 KF 8 JK
macro= 44  E= -13980.1852192387  delta_E= -9.82473e-08  |g|= 3.20715e-05  3 KF 30 JK
macro= 45  E= -13980.1852193888  delta_E= -1.50136e-07  |g|= 7.33101e-05  4 KF 35 JK
macro= 46  E= -13980.18521953  delta_E= -1.41194e-07  |g|= 4.04201e-05  4 KF 36 JK
macro= 47  E= -13980.1852195659  delta_E= -3.59141e-08  |g|= 1.94519e-05  3 KF 27 JK
macro= 48  E= -13980.1852195659  delta_E= 1.45519e-11  |g|= 1.24897e-05  1 KF 2 JK
Canonicalize SCF orbitals
macro X = 49  E=-13980.1852195659  |g|= 1.24897e-05  total 152 KF 1026 JK
converged SCF energy = -13980.1852195659  <S^2> = 36.18323  2S+1 = 12.071989

******** AVAS flags ********
aolabels = ['Er 4f', 'Er 5d', 'Er 6s']
ncore = 0
minao = {'H': 'ano@2s1p', 'He': 'ano@2s1p', 'Li': 'ano@3s2p1d', 'Be': 'ano@3s2p1d', 'B': 'ano@3s2p1d', 'C': 'ano@3s2p1d', 'N': 'ano@3s2p1d', 'O': 'ano@3s2p1d', 'F': 'ano@3s2p1d', 'Ne': 'ano@3s2p1d', 'Na': 'ano@4s3p1d', 'Mg': 'ano@4s3p1d', 'Al': 'ano@4s3p1d', 'Si': 'ano@4s3p1d', 'P': 'ano@4s3p1d', 'S': 'ano@4s3p1d', 'Cl': 'ano@4s3p1d', 'Ar': 'ano@4s3p1d', 'K': 'ano@5s4p1d', 'Ca': 'ano@5s4p1d', 'Sc': 'ano@5s4p2d1f', 'Ti': 'ano@5s4p2d1f', 'V': 'ano@5s4p2d1f', 'Cr': 'ano@5s4p2d1f', 'Mn': 'ano@5s4p2d1f', 'Fe': 'ano@5s4p2d1f', 'Co': 'ano@5s4p2d1f', 'Ni': 'ano@5s4p2d1f', 'Cu': 'ano@5s4p2d1f', 'Zn': 'ano@5s4p2d1f', 'Ga': 'ano@5s4p2d', 'Ge': 'ano@5s4p2d', 'As': 'ano@5s4p2d', 'Se': 'ano@5s4p2d', 'Br': 'ano@5s4p2d', 'Kr': 'ano@5s4p2d', 'Rb': 'ano@6s5p2d', 'Sr': 'ano@6s5p2d', 'Y': 'ano@6s5p3d1f', 'Zr': 'ano@6s5p3d1f', 'Nb': 'ano@6s5p3d1f', 'Mo': 'ano@6s5p3d1f', 'Tc': 'ano@6s5p3d1f', 'Ru': 'ano@6s5p3d1f', 'Rh': 'ano@6s5p3d1f', 'Pd': 'ano@6s5p3d1f', 'Ag': 'ano@6s5p3d1f', 'Cd': 'ano@6s5p3d1f', 'In': 'ano@6s5p3d1f', 'Sn': 'ano@6s5p3d1f', 'Sb': 'ano@6s5p3d1f', 'Te': 'ano@6s5p3d1f', 'I': 'ano@6s5p3d1f', 'Xe': 'ano@6s5p3d1f', 'Cs': 'ano@7s6p3d1f', 'Ba': 'ano@7s6p3d1f', 'La': 'ano@7s6p4d2f1g', 'Ce': 'ano@7s6p4d2f1g', 'Pr': 'ano@7s6p4d2f1g', 'Nd': 'ano@7s6p4d2f1g', 'Pm': 'ano@7s6p4d2f1g', 'Sm': 'ano@7s6p4d2f1g', 'Eu': 'ano@7s6p4d2f1g', 'Gd': 'ano@7s6p4d2f1g', 'Tb': 'ano@7s6p4d2f1g', 'Dy': 'ano@7s6p4d2f1g', 'Ho': 'ano@7s6p4d2f1g', 'Er': 'ano@7s6p4d2f1g', 'Tm': 'ano@7s6p4d2f1g', 'Yb': 'ano@7s6p4d2f1g', 'Lu': 'ano@7s6p4d2f1g', 'Hf': 'ano@7s6p4d2f1g', 'Ta': 'ano@7s6p4d2f1g', 'W': 'ano@7s6p4d2f1g', 'Re': 'ano@7s6p4d2f1g', 'Os': 'ano@7s6p4d2f1g', 'Ir': 'ano@7s6p4d2f', 'Pt': 'ano@7s6p4d2f', 'Au': 'ano@7s6p4d2f', 'Hg': 'ano@7s6p4d2f', 'Tl': 'ano@7s6p4d2f1g', 'Pb': 'ano@7s6p4d2f1g', 'Bi': 'ano@7s6p4d2f1g', 'Po': 'ano@7s6p4d2f1g', 'At': 'ano@7s6p4d2f1g', 'Rn': 'ano@7s6p4d2f1g'}
threshold = 0.2
with_iao = False
openshell_option = 2
canonicalize = True

** AVAS **
UHF/UKS object is found.  AVAS takes alpha orbitals only
  Total number of HF MOs  is equal to    361
  Number of occupied HF MOs is equal to  103
reference AO indices for {'H': 'ano@2s1p', 'He': 'ano@2s1p', 'Li': 'ano@3s2p1d', 'Be': 'ano@3s2p1d', 'B': 'ano@3s2p1d', 'C': 'ano@3s2p1d', 'N': 'ano@3s2p1d', 'O': 'ano@3s2p1d', 'F': 'ano@3s2p1d', 'Ne': 'ano@3s2p1d', 'Na': 'ano@4s3p1d', 'Mg': 'ano@4s3p1d', 'Al': 'ano@4s3p1d', 'Si': 'ano@4s3p1d', 'P': 'ano@4s3p1d', 'S': 'ano@4s3p1d', 'Cl': 'ano@4s3p1d', 'Ar': 'ano@4s3p1d', 'K': 'ano@5s4p1d', 'Ca': 'ano@5s4p1d', 'Sc': 'ano@5s4p2d1f', 'Ti': 'ano@5s4p2d1f', 'V': 'ano@5s4p2d1f', 'Cr': 'ano@5s4p2d1f', 'Mn': 'ano@5s4p2d1f', 'Fe': 'ano@5s4p2d1f', 'Co': 'ano@5s4p2d1f', 'Ni': 'ano@5s4p2d1f', 'Cu': 'ano@5s4p2d1f', 'Zn': 'ano@5s4p2d1f', 'Ga': 'ano@5s4p2d', 'Ge': 'ano@5s4p2d', 'As': 'ano@5s4p2d', 'Se': 'ano@5s4p2d', 'Br': 'ano@5s4p2d', 'Kr': 'ano@5s4p2d', 'Rb': 'ano@6s5p2d', 'Sr': 'ano@6s5p2d', 'Y': 'ano@6s5p3d1f', 'Zr': 'ano@6s5p3d1f', 'Nb': 'ano@6s5p3d1f', 'Mo': 'ano@6s5p3d1f', 'Tc': 'ano@6s5p3d1f', 'Ru': 'ano@6s5p3d1f', 'Rh': 'ano@6s5p3d1f', 'Pd': 'ano@6s5p3d1f', 'Ag': 'ano@6s5p3d1f', 'Cd': 'ano@6s5p3d1f', 'In': 'ano@6s5p3d1f', 'Sn': 'ano@6s5p3d1f', 'Sb': 'ano@6s5p3d1f', 'Te': 'ano@6s5p3d1f', 'I': 'ano@6s5p3d1f', 'Xe': 'ano@6s5p3d1f', 'Cs': 'ano@7s6p3d1f', 'Ba': 'ano@7s6p3d1f', 'La': 'ano@7s6p4d2f1g', 'Ce': 'ano@7s6p4d2f1g', 'Pr': 'ano@7s6p4d2f1g', 'Nd': 'ano@7s6p4d2f1g', 'Pm': 'ano@7s6p4d2f1g', 'Sm': 'ano@7s6p4d2f1g', 'Eu': 'ano@7s6p4d2f1g', 'Gd': 'ano@7s6p4d2f1g', 'Tb': 'ano@7s6p4d2f1g', 'Dy': 'ano@7s6p4d2f1g', 'Ho': 'ano@7s6p4d2f1g', 'Er': 'ano@7s6p4d2f1g', 'Tm': 'ano@7s6p4d2f1g', 'Yb': 'ano@7s6p4d2f1g', 'Lu': 'ano@7s6p4d2f1g', 'Hf': 'ano@7s6p4d2f1g', 'Ta': 'ano@7s6p4d2f1g', 'W': 'ano@7s6p4d2f1g', 'Re': 'ano@7s6p4d2f1g', 'Os': 'ano@7s6p4d2f1g', 'Ir': 'ano@7s6p4d2f', 'Pt': 'ano@7s6p4d2f', 'Au': 'ano@7s6p4d2f', 'Hg': 'ano@7s6p4d2f', 'Tl': 'ano@7s6p4d2f1g', 'Pb': 'ano@7s6p4d2f1g', 'Bi': 'ano@7s6p4d2f1g', 'Po': 'ano@7s6p4d2f1g', 'At': 'ano@7s6p4d2f1g', 'Rn': 'ano@7s6p4d2f1g'} ['Er 4f', 'Er 5d', 'Er 6s']:
 [ 5 35 36 37 38 39 45 46 47 48 49 50 51]
Option 2: threshold 0.2
Active from occupied = 13 , eig [0.23819349 0.27654832 0.33985438 0.40523173 0.53489226 0.97649577
 0.99456687 0.9946623  0.99490772 0.9951824  0.99535627 0.99558069
 0.99566756]
Inactive from occupied = 90
Active from unoccupied = 5 , eig [0.46510774 0.59476827 0.66014562 0.72345168 0.76180651]
Inactive from unoccupied = 253
Dimensions of active 18
# of alpha electrons 13
# of beta electrons 2
Building tPBE functional
Building tPBE functional

******** <class 'pyscf.mcpdft.mcpdft.get_mcpdft_child_class.<locals>.PDFT'> ********
CAS (11e+0e, 13o), ncore = 92, nvir = 256
max_cycle_macro = 150
max_cycle_micro = 4
conv_tol = 1e-07
conv_tol_grad = None
orbital rotation max_stepsize = 0.02
orbital rotation threshold for CI restart = 0.01
augmented hessian ah_max_cycle = 30
augmented hessian ah_conv_tol = 1e-12
augmented hessian ah_linear dependence = 1e-14
augmented hessian ah_level shift = 1e-08
augmented hessian ah_start_tol = 2.5
augmented hessian ah_start_cycle = 3
augmented hessian ah_grad_trust_region = 3
kf_trust_region = 3
kf_interval = 4
ci_response_space = 4
ci_grad_trust_region = 3
with_dep4 0
natorb = False
canonicalization = True
sorting_mo_energy = False
ao2mo_level = 2
chkfile = /scratch/local/jobs/25203339/tmp5nl80j6a
max_memory 100000 MB (current use 17507 MB)
internal_rotation = False
******** <class 'mrh.my_pyscf.fci.csf.FCISolver'> ********
max. cycles = 100
conv_tol = 1e-10
davidson only = False
linear dependence = 1e-14
level shift = 0.001
max iter space = 12
max_memory 100000 MB
nroots = 1
pspace_size = 200
spin = None
on-top pair density exchange-correlation functional: tPBE
CASCI E = -13973.3101140122  S^2 = 35.7500000
Set conv_tol_grad to 0.000316228
macro iter   1 ( 21 JK    4 micro), CASSCF E = -13975.5901381178  dE = -2.28002411e+00  S^2 = 35.7500000
               |grad[o]|= 4.53  |grad[c]|= 1.87  |ddm|=0.0339  |maxRot[o]|=0.271
macro iter   2 ( 21 JK    4 micro), CASSCF E = -13977.1695374672  dE = -1.57939935e+00  S^2 = 35.7500000
               |grad[o]|= 2.89  |grad[c]|= 1.28  |ddm|=0.0714  |maxRot[o]|=0.304
macro iter   3 ( 21 JK    4 micro), CASSCF E = -13978.0050449266  dE = -8.35507459e-01  S^2 = 35.7500000
               |grad[o]|= 1.93  |grad[c]|=0.672  |ddm|=0.0692  |maxRot[o]|=0.309
macro iter   4 ( 21 JK    4 micro), CASSCF E = -13978.6686363438  dE = -6.63591417e-01  S^2 = 35.7500000
               |grad[o]|= 1.36  |grad[c]|=0.461  |ddm|=0.0722  |maxRot[o]|=0.308
macro iter   5 ( 21 JK    4 micro), CASSCF E = -13979.4066563949  dE = -7.38020051e-01  S^2 = 35.7500000
               |grad[o]|=    1  |grad[c]|=0.549  |ddm|=0.195  |maxRot[o]|=0.293
macro iter   6 ( 21 JK    4 micro), CASSCF E = -13979.7408832791  dE = -3.34226884e-01  S^2 = 35.7500000
               |grad[o]|=0.527  |grad[c]|=0.205  |ddm|=0.0951  |maxRot[o]|= 0.29
macro iter   7 ( 21 JK    4 micro), CASSCF E = -13979.9144715833  dE = -1.73588304e-01  S^2 = 35.7500000
               |grad[o]|=0.315  |grad[c]|=0.135  |ddm|=0.121  |maxRot[o]|=0.203
macro iter   8 ( 21 JK    4 micro), CASSCF E = -13979.9590249303  dE = -4.45533470e-02  S^2 = 35.7500000
               |grad[o]|=0.141  |grad[c]|=0.0182  |ddm|= 0.14  |maxRot[o]|=0.153
macro iter   9 ( 21 JK    4 micro), CASSCF E = -13979.9678673815  dE = -8.84245129e-03  S^2 = 35.7500000
               |grad[o]|=0.0551  |grad[c]|=0.00533  |ddm|=0.0227  |maxRot[o]|=0.158
macro iter  10 ( 21 JK    4 micro), CASSCF E = -13979.9725925207  dE = -4.72513911e-03  S^2 = 35.7500000
               |grad[o]|=0.0583  |grad[c]|=0.00513  |ddm|=0.168  |maxRot[o]|=0.0869
macro iter  11 ( 21 JK    4 micro), CASSCF E = -13979.9734223195  dE = -8.29798868e-04  S^2 = 35.7500000
               |grad[o]|=0.0205  |grad[c]|=0.00217  |ddm|=0.0693  |maxRot[o]|=0.0502
macro iter  12 ( 21 JK    4 micro), CASSCF E = -13979.9745150802  dE = -1.09276066e-03  S^2 = 35.7500000
               |grad[o]|=0.0163  |grad[c]|=0.00184  |ddm|=0.0275  |maxRot[o]|=0.0375
macro iter  13 ( 21 JK    4 micro), CASSCF E = -13979.9752569744  dE = -7.41894168e-04  S^2 = 35.7500000
               |grad[o]|=0.00985  |grad[c]|=0.00122  |ddm|=0.0118  |maxRot[o]|=0.158
macro iter  14 ( 21 JK    4 micro), CASSCF E = -13979.9756969849  dE = -4.40010526e-04  S^2 = 35.7500000
               |grad[o]|=0.00623  |grad[c]|=0.00187  |ddm|=0.014  |maxRot[o]|=0.264
macro iter  15 ( 21 JK    4 micro), CASSCF E = -13979.9766229940  dE = -9.26009083e-04  S^2 = 35.7500000
               |grad[o]|=0.00416  |grad[c]|=0.00315  |ddm|=0.00528  |maxRot[o]|=0.246
macro iter  16 ( 21 JK    4 micro), CASSCF E = -13979.9771674191  dE = -5.44425126e-04  S^2 = 35.7500000
               |grad[o]|=0.00508  |grad[c]|=0.00266  |ddm|=0.00588  |maxRot[o]|=0.129
macro iter  17 ( 21 JK    4 micro), CASSCF E = -13979.9773083710  dE = -1.40951874e-04  S^2 = 35.7500000
               |grad[o]|=0.00813  |grad[c]|=0.00198  |ddm|=0.00711  |maxRot[o]|=0.0718
macro iter  18 ( 21 JK    4 micro), CASSCF E = -13979.9773286383  dE = -2.02673582e-05  S^2 = 35.7500000
               |grad[o]|=0.00435  |grad[c]|=0.00142  |ddm|=0.00249  |maxRot[o]|=0.0255
macro iter  19 ( 21 JK    4 micro), CASSCF E = -13979.9773495453  dE = -2.09070167e-05  S^2 = 35.7500000
               |grad[o]|=0.0039  |grad[c]|=0.00149  |ddm|=0.00311  |maxRot[o]|=0.024
macro iter  20 (  7 JK    2 micro), CASSCF E = -13979.9774933130  dE = -1.43767698e-04  S^2 = 35.7500000
               |grad[o]|=0.00394  |grad[c]|=0.000211  |ddm|=0.00187  |maxRot[o]|=0.0699
macro iter  21 ( 21 JK    4 micro), CASSCF E = -13979.9775940490  dE = -1.00735986e-04  S^2 = 35.7500000
               |grad[o]|=0.0055  |grad[c]|=0.00166  |ddm|=0.00404  |maxRot[o]|=0.0489
macro iter  22 ( 21 JK    4 micro), CASSCF E = -13979.9777372581  dE = -1.43209079e-04  S^2 = 35.7500000
               |grad[o]|=0.00467  |grad[c]|=0.00154  |ddm|=0.00389  |maxRot[o]|=0.0588
macro iter  23 ( 21 JK    4 micro), CASSCF E = -13979.9780616143  dE = -3.24356179e-04  S^2 = 35.7500000
               |grad[o]|=0.00496  |grad[c]|=0.00128  |ddm|=0.00326  |maxRot[o]|=0.145
macro iter  24 ( 21 JK    4 micro), CASSCF E = -13979.9782226414  dE = -1.61027099e-04  S^2 = 35.7500000
               |grad[o]|=0.00763  |grad[c]|=0.0014  |ddm|=0.00513  |maxRot[o]|=0.0854
macro iter  25 (  7 JK    2 micro), CASSCF E = -13979.9782889931  dE = -6.63517512e-05  S^2 = 35.7500000
               |grad[o]|=0.00375  |grad[c]|=0.000115  |ddm|=0.000606  |maxRot[o]|=0.0699
macro iter  26 ( 17 JK    4 micro), CASSCF E = -13979.9783789893  dE = -8.99961597e-05  S^2 = 35.7500000
               |grad[o]|=0.00728  |grad[c]|=0.00069  |ddm|=0.00135  |maxRot[o]|=0.0699
macro iter  27 ( 17 JK    4 micro), CASSCF E = -13979.9784614754  dE = -8.24861254e-05  S^2 = 35.7500000
               |grad[o]|=0.00658  |grad[c]|=0.000677  |ddm|=0.00118  |maxRot[o]|=0.0699
macro iter  28 ( 21 JK    4 micro), CASSCF E = -13979.9784695579  dE = -8.08253208e-06  S^2 = 35.7500000
               |grad[o]|=0.00653  |grad[c]|=0.000663  |ddm|=0.000979  |maxRot[o]|=0.00884
macro iter  29 ( 21 JK    4 micro), CASSCF E = -13979.9784681712  dE =  1.38674841e-06  S^2 = 35.7500000
               |grad[o]|=0.00406  |grad[c]|=0.000635  |ddm|=0.000725  |maxRot[o]|=0.0086
macro iter  30 ( 17 JK    4 micro), CASSCF E = -13979.9784985612  dE = -3.03899578e-05  S^2 = 35.7500000
               |grad[o]|=0.00525  |grad[c]|=0.000182  |ddm|=0.000122  |maxRot[o]|=0.027
macro iter  31 ( 12 JK    3 micro), CASSCF E = -13979.9785067698  dE = -8.20864079e-06  S^2 = 35.7500000
               |grad[o]|=0.00474  |grad[c]|=3.39e-05  |ddm|=6.3e-05  |maxRot[o]|=0.00548
macro iter  32 ( 21 JK    4 micro), CASSCF E = -13979.9785162322  dE = -9.46242835e-06  S^2 = 35.7500000
               |grad[o]|=0.00434  |grad[c]|=0.000435  |ddm|=0.000369  |maxRot[o]|=0.00586
macro iter  33 ( 21 JK    4 micro), CASSCF E = -13979.9785154026  dE =  8.29651981e-07  S^2 = 35.7500000
               |grad[o]|=0.00405  |grad[c]|=0.000538  |ddm|=0.000451  |maxRot[o]|=0.00279
macro iter  34 ( 17 JK    4 micro), CASSCF E = -13979.9785400248  dE = -2.46222116e-05  S^2 = 35.7500000
               |grad[o]|=0.00443  |grad[c]|=0.00016  |ddm|=8.94e-05  |maxRot[o]|=0.0232
macro iter  35 ( 12 JK    3 micro), CASSCF E = -13979.9785461687  dE = -6.14392957e-06  S^2 = 35.7500000
               |grad[o]|=0.00404  |grad[c]|=3.34e-05  |ddm|=5.68e-05  |maxRot[o]|=0.00508
macro iter  36 ( 21 JK    4 micro), CASSCF E = -13979.9785510817  dE = -4.91296669e-06  S^2 = 35.7500000
               |grad[o]|=0.0038  |grad[c]|=0.000441  |ddm|=0.000324  |maxRot[o]|=0.00535
macro iter  37 ( 21 JK    4 micro), CASSCF E = -13979.9785489060  dE =  2.17568049e-06  S^2 = 35.7500000
               |grad[o]|=0.00377  |grad[c]|=0.000582  |ddm|=0.000402  |maxRot[o]|=0.00167
macro iter  38 ( 17 JK    4 micro), CASSCF E = -13979.9785729813  dE = -2.40752943e-05  S^2 = 35.7500000
               |grad[o]|=0.00443  |grad[c]|=0.000174  |ddm|=9.44e-05  |maxRot[o]|=0.0228
macro iter  39 ( 12 JK    3 micro), CASSCF E = -13979.9785789230  dE = -5.94169069e-06  S^2 = 35.7500000
               |grad[o]|=0.00407  |grad[c]|=3.71e-05  |ddm|=5.37e-05  |maxRot[o]|=0.00503
macro iter  40 ( 21 JK    4 micro), CASSCF E = -13979.9785830050  dE = -4.08201777e-06  S^2 = 35.7500000
               |grad[o]|=0.00389  |grad[c]|=0.000481  |ddm|=0.000335  |maxRot[o]|=0.00482
macro iter  41 ( 21 JK    4 micro), CASSCF E = -13979.9785796276  dE =  3.37742676e-06  S^2 = 35.7500000
               |grad[o]|=0.00397  |grad[c]|=0.000617  |ddm|=0.000426  |maxRot[o]|=0.00101
macro iter  42 ( 17 JK    4 micro), CASSCF E = -13979.9786037257  dE = -2.40981644e-05  S^2 = 35.7500000
               |grad[o]|=0.00484  |grad[c]|=0.000185  |ddm|=9.89e-05  |maxRot[o]|=0.0227
macro iter  43 ( 12 JK    3 micro), CASSCF E = -13979.9786097693  dE = -6.04359411e-06  S^2 = 35.7500000
               |grad[o]|=0.00443  |grad[c]|=3.93e-05  |ddm|=6.11e-05  |maxRot[o]|=0.00503
macro iter  44 ( 21 JK    4 micro), CASSCF E = -13979.9786142718  dE = -4.50242260e-06  S^2 = 35.7500000
               |grad[o]|=0.00423  |grad[c]|=0.000509  |ddm|=0.000354  |maxRot[o]|=0.00466
macro iter  45 ( 21 JK    4 micro), CASSCF E = -13979.9786106889  dE =  3.58284888e-06  S^2 = 35.7500000
               |grad[o]|=0.00429  |grad[c]|=0.000671  |ddm|=0.000469  |maxRot[o]|=0.00219
macro iter  46 ( 17 JK    4 micro), CASSCF E = -13979.9786352319  dE = -2.45429874e-05  S^2 = 35.7500000
               |grad[o]|=0.00528  |grad[c]|=0.000196  |ddm|=0.000109  |maxRot[o]|=0.0227
macro iter  47 ( 12 JK    3 micro), CASSCF E = -13979.9786414918  dE = -6.25991379e-06  S^2 = 35.7500000
               |grad[o]|=0.00483  |grad[c]|=4.12e-05  |ddm|=7.22e-05  |maxRot[o]|=0.00503
macro iter  48 ( 21 JK    4 micro), CASSCF E = -13979.9786448606  dE = -3.36875564e-06  S^2 = 35.7500000
               |grad[o]|=0.0046  |grad[c]|=0.000533  |ddm|=0.000374  |maxRot[o]|=0.00613
macro iter  49 ( 21 JK    4 micro), CASSCF E = -13979.9786406577  dE =  4.20283868e-06  S^2 = 35.7500000
               |grad[o]|=0.00465  |grad[c]|=0.000718  |ddm|=0.000512  |maxRot[o]|=0.0021
macro iter  50 ( 17 JK    4 micro), CASSCF E = -13979.9786661342  dE = -2.54764527e-05  S^2 = 35.7500000
               |grad[o]|=0.00583  |grad[c]|=0.000209  |ddm|=0.000123  |maxRot[o]|=0.0227
macro iter  51 ( 12 JK    3 micro), CASSCF E = -13979.9786728213  dE = -6.68709617e-06  S^2 = 35.7500000
               |grad[o]|=0.00532  |grad[c]|=4.34e-05  |ddm|=8.72e-05  |maxRot[o]|=0.00503
macro iter  52 ( 21 JK    4 micro), CASSCF E = -13979.9786747941  dE = -1.97279769e-06  S^2 = 35.7500000
               |grad[o]|=0.00504  |grad[c]|=0.000566  |ddm|=0.000406  |maxRot[o]|=0.00592
macro iter  53 ( 21 JK    4 micro), CASSCF E = -13979.9786699976  dE =  4.79643859e-06  S^2 = 35.7500000
               |grad[o]|=0.0051  |grad[c]|=0.000766  |ddm|=0.000547  |maxRot[o]|=0.00137
macro iter  54 ( 17 JK    4 micro), CASSCF E = -13979.9786967437  dE = -2.67460800e-05  S^2 = 35.7500000
               |grad[o]|=0.00641  |grad[c]|=0.00022  |ddm|=0.000139  |maxRot[o]|=0.0227
macro iter  55 ( 12 JK    3 micro), CASSCF E = -13979.9787041039  dE = -7.36018774e-06  S^2 = 35.7500000
               |grad[o]|=0.00583  |grad[c]|=4.53e-05  |ddm|=0.000107  |maxRot[o]|=0.00503
macro iter  56 ( 21 JK    4 micro), CASSCF E = -13979.9787055154  dE = -1.41152486e-06  S^2 = 35.7500000
               |grad[o]|=0.00549  |grad[c]|=0.000591  |ddm|=0.000441  |maxRot[o]|=0.00597
macro iter  57 ( 21 JK    4 micro), CASSCF E = -13979.9786992722  dE =  6.24322638e-06  S^2 = 35.7500000
               |grad[o]|=0.00553  |grad[c]|=0.00079  |ddm|=0.00058  |maxRot[o]|=0.00167
macro iter  58 ( 17 JK    4 micro), CASSCF E = -13979.9787271972  dE = -2.79249925e-05  S^2 = 35.7500000
               |grad[o]|=0.00693  |grad[c]|=0.000229  |ddm|=0.000154  |maxRot[o]|=0.0227
macro iter  59 ( 12 JK    3 micro), CASSCF E = -13979.9787351813  dE = -7.98408109e-06  S^2 = 35.7500000
               |grad[o]|=0.00627  |grad[c]|=4.68e-05  |ddm|=0.000125  |maxRot[o]|=0.00503
macro iter  60 ( 21 JK    4 micro), CASSCF E = -13979.9787356431  dE = -4.61830496e-07  S^2 = 35.7500000
               |grad[o]|=0.00587  |grad[c]|=0.000621  |ddm|=0.00048  |maxRot[o]|=0.00469
macro iter  61 ( 21 JK    4 micro), CASSCF E = -13979.9787271346  dE =  8.50854303e-06  S^2 = 35.7500000
               |grad[o]|=0.00592  |grad[c]|=0.000823  |ddm|=0.000611  |maxRot[o]|=0.00223
macro iter  62 ( 17 JK    4 micro), CASSCF E = -13979.9787561675  dE = -2.90329190e-05  S^2 = 35.7500000
               |grad[o]|=0.00735  |grad[c]|=0.000235  |ddm|=0.000168  |maxRot[o]|=0.0227
macro iter  63 ( 12 JK    3 micro), CASSCF E = -13979.9787648102  dE = -8.64272261e-06  S^2 = 35.7500000
               |grad[o]|=0.00661  |grad[c]|=4.75e-05  |ddm|=0.000143  |maxRot[o]|=0.00503
macro iter  64 ( 21 JK    4 micro), CASSCF E = -13979.9787654590  dE = -6.48749847e-07  S^2 = 35.7500000
               |grad[o]|=0.00617  |grad[c]|=0.000634  |ddm|=0.000513  |maxRot[o]|=0.00461
macro iter  65 ( 21 JK    4 micro), CASSCF E = -13979.9787566701  dE =  8.78885839e-06  S^2 = 35.7500000
               |grad[o]|=0.00617  |grad[c]|=0.000822  |ddm|=0.000626  |maxRot[o]|=0.00222
macro iter  66 ( 17 JK    4 micro), CASSCF E = -13979.9787862451  dE = -2.95749796e-05  S^2 = 35.7500000
               |grad[o]|=0.0076  |grad[c]|=0.000241  |ddm|=0.000177  |maxRot[o]|=0.0227
macro iter  67 ( 12 JK    3 micro), CASSCF E = -13979.9787952880  dE = -9.04294757e-06  S^2 = 35.7500000
               |grad[o]|=0.00681  |grad[c]|=4.82e-05  |ddm|=0.000154  |maxRot[o]|=0.00503
macro iter  68 ( 21 JK    4 micro), CASSCF E = -13979.9787951067  dE =  1.81369614e-07  S^2 = 35.7500000
               |grad[o]|=0.00631  |grad[c]|=0.000654  |ddm|=0.000545  |maxRot[o]|=0.00444
macro iter  69 ( 21 JK    4 micro), CASSCF E = -13979.9788374760  dE = -4.23693327e-05  S^2 = 35.7500000
               |grad[o]|=0.00634  |grad[c]|=0.000197  |ddm|=0.000166  |maxRot[o]|=0.0341
macro iter  70 ( 12 JK    3 micro), CASSCF E = -13979.9788454229  dE = -7.94692642e-06  S^2 = 35.7500000
               |grad[o]|=0.00537  |grad[c]|=4.33e-05  |ddm|=0.000175  |maxRot[o]|=0.00461
macro iter  71 ( 21 JK    4 micro), CASSCF E = -13979.9788481532  dE = -2.73031037e-06  S^2 = 35.7500000
               |grad[o]|=0.00493  |grad[c]|=0.00059  |ddm|=0.000578  |maxRot[o]|=0.00537
macro iter  72 ( 21 JK    4 micro), CASSCF E = -13979.9788397074  dE =  8.44583701e-06  S^2 = 35.7500000
               |grad[o]|=0.00483  |grad[c]|=0.000798  |ddm|=0.000655  |maxRot[o]|=0.00123
macro iter  73 ( 17 JK    4 micro), CASSCF E = -13979.9788673229  dE = -2.76154860e-05  S^2 = 35.7500000
               |grad[o]|=0.00628  |grad[c]|=0.000226  |ddm|=0.000185  |maxRot[o]|=0.0222
macro iter  74 ( 12 JK    3 micro), CASSCF E = -13979.9788753335  dE = -8.01066381e-06  S^2 = 35.7500000
               |grad[o]|=0.00559  |grad[c]|=4.55e-05  |ddm|=0.000153  |maxRot[o]|=0.00497
macro iter  75 ( 21 JK    4 micro), CASSCF E = -13979.9788734975  dE =  1.83603333e-06  S^2 = 35.7500000
               |grad[o]|=0.00516  |grad[c]|=0.000632  |ddm|=0.000559  |maxRot[o]|=0.00504
macro iter  76 ( 17 JK    4 micro), CASSCF E = -13979.9788960698  dE = -2.25722524e-05  S^2 = 35.7500000
               |grad[o]|=0.00544  |grad[c]|=0.000195  |ddm|=0.00017  |maxRot[o]|=0.019
macro iter  77 ( 12 JK    3 micro), CASSCF E = -13979.9789031479  dE = -7.07816253e-06  S^2 = 35.7500000
               |grad[o]|=0.0049  |grad[c]|=4.36e-05  |ddm|=0.000146  |maxRot[o]|=0.00466
macro iter  78 ( 21 JK    4 micro), CASSCF E = -13979.9789005567  dE =  2.59121407e-06  S^2 = 35.7500000
               |grad[o]|=0.00451  |grad[c]|=0.000649  |ddm|=0.000554  |maxRot[o]|=0.00178
macro iter  79 ( 17 JK    4 micro), CASSCF E = -13979.9789218842  dE = -2.13275434e-05  S^2 = 35.7500000
               |grad[o]|=0.0051  |grad[c]|=0.000189  |ddm|=0.000169  |maxRot[o]|=0.0184
macro iter  80 ( 21 JK    4 micro), CASSCF E = -13979.9789266470  dE = -4.76270543e-06  S^2 = 35.7500000
               |grad[o]|=0.00453  |grad[c]|=0.0004  |ddm|=0.000411  |maxRot[o]|=0.00105
macro iter  81 ( 21 JK    4 micro), CASSCF E = -13979.9789224257  dE =  4.22122503e-06  S^2 = 35.7500000
               |grad[o]|=0.00391  |grad[c]|=0.000676  |ddm|=0.000549  |maxRot[o]|=0.000551
macro iter  82 ( 17 JK    4 micro), CASSCF E = -13979.9789432266  dE = -2.08008296e-05  S^2 = 35.7500000
               |grad[o]|=0.00481  |grad[c]|=0.000191  |ddm|=0.000164  |maxRot[o]|=0.0182
macro iter  83 ( 21 JK    4 micro), CASSCF E = -13979.9789481245  dE = -4.89794002e-06  S^2 = 35.7500000
               |grad[o]|=0.00423  |grad[c]|=0.000401  |ddm|=0.000405  |maxRot[o]|=0.00192
macro iter  84 ( 21 JK    4 micro), CASSCF E = -13979.9789444195  dE =  3.70495763e-06  S^2 = 35.7500000
               |grad[o]|=0.00367  |grad[c]|=0.000674  |ddm|=0.000551  |maxRot[o]|=0.000697
macro iter  85 ( 17 JK    4 micro), CASSCF E = -13979.9789645586  dE = -2.01390703e-05  S^2 = 35.7500000
               |grad[o]|=0.00462  |grad[c]|=0.000191  |ddm|=0.000165  |maxRot[o]|=0.0181
macro iter  86 ( 21 JK    4 micro), CASSCF E = -13979.9789692849  dE = -4.72631291e-06  S^2 = 35.7500000
               |grad[o]|=0.00404  |grad[c]|=0.000402  |ddm|=0.000406  |maxRot[o]|=0.00202
macro iter  87 ( 21 JK    4 micro), CASSCF E = -13979.9789661289  dE =  3.15605394e-06  S^2 = 35.7500000
               |grad[o]|=0.00348  |grad[c]|=0.000674  |ddm|=0.000558  |maxRot[o]|=0.0013
macro iter  88 ( 17 JK    4 micro), CASSCF E = -13979.9789855113  dE = -1.93824744e-05  S^2 = 35.7500000
               |grad[o]|=0.00446  |grad[c]|=0.000192  |ddm|=0.000166  |maxRot[o]|=0.0181
macro iter  89 ( 21 JK    4 micro), CASSCF E = -13979.9789901839  dE = -4.67257269e-06  S^2 = 35.7500000
               |grad[o]|=0.00387  |grad[c]|=0.000405  |ddm|=0.000415  |maxRot[o]|=0.00248
macro iter  90 ( 21 JK    4 micro), CASSCF E = -13979.9789872684  dE =  2.91552533e-06  S^2 = 35.7500000
               |grad[o]|=0.00331  |grad[c]|=0.000667  |ddm|=0.000562  |maxRot[o]|=0.00333
macro iter  91 ( 17 JK    4 micro), CASSCF E = -13979.9790058722  dE = -1.86037851e-05  S^2 = 35.7500000
               |grad[o]|=0.00436  |grad[c]|=0.000193  |ddm|=0.00017  |maxRot[o]|=0.0181
macro iter  92 ( 21 JK    4 micro), CASSCF E = -13979.9790105951  dE = -4.72293505e-06  S^2 = 35.7500000
               |grad[o]|=0.00374  |grad[c]|=0.000409  |ddm|=0.000424  |maxRot[o]|=0.00319
macro iter  93 (  7 JK    2 micro), CASSCF E = -13979.9790456699  dE = -3.50748378e-05  S^2 = 35.7500000
               |grad[o]|=0.00318  |grad[c]|=0.000121  |ddm|=0.00048  |maxRot[o]|=0.0468
macro iter  94 (  7 JK    2 micro), CASSCF E = -13979.9790750332  dE = -2.93632638e-05  S^2 = 35.7500000
               |grad[o]|=0.00371  |grad[c]|=0.000207  |ddm|=0.000755  |maxRot[o]|=0.0572
macro iter  95 ( 19 JK    4 micro), CASSCF E = -13979.9790585304  dE =  1.65028450e-05  S^2 = 35.7500000
               |grad[o]|=0.00663  |grad[c]|=0.000681  |ddm|=0.00038  |maxRot[o]|=0.0362
macro iter  96 ( 21 JK    4 micro), CASSCF E = -13979.9790783751  dE = -1.98447469e-05  S^2 = 35.7500000
               |grad[o]|=0.00329  |grad[c]|=0.000231  |ddm|=0.000462  |maxRot[o]|=0.0238
macro iter  97 ( 18 JK    4 micro), CASSCF E = -13979.9790786893  dE = -3.14163117e-07  S^2 = 35.7500000
               |grad[o]|=0.00198  |grad[c]|=0.000542  |ddm|=0.0014  |maxRot[o]|=0.0208
macro iter  98 (  7 JK    2 micro), CASSCF E = -13979.9791046202  dE = -2.59309691e-05  S^2 = 35.7500000
               |grad[o]|=0.00195  |grad[c]|=8.19e-05  |ddm|=0.000289  |maxRot[o]|=0.0505
macro iter  99 (  7 JK    2 micro), CASSCF E = -13979.9791254076  dE = -2.07873672e-05  S^2 = 35.7500000
               |grad[o]|=0.00265  |grad[c]|=0.000102  |ddm|=0.000437  |maxRot[o]|=0.0594
macro iter 100 ( 19 JK    4 micro), CASSCF E = -13979.9791139366  dE =  1.14709819e-05  S^2 = 35.7500000
               |grad[o]|=0.00427  |grad[c]|=0.000649  |ddm|=0.000319  |maxRot[o]|=0.0368
macro iter 101 ( 22 JK    4 micro), CASSCF E = -13979.9791261015  dE = -1.21648318e-05  S^2 = 35.7500000
               |grad[o]|=0.00233  |grad[c]|=0.000188  |ddm|=0.000368  |maxRot[o]|=0.0285
macro iter 102 (  7 JK    2 micro), CASSCF E = -13979.9791350700  dE = -8.96848906e-06  S^2 = 35.7500000
               |grad[o]|=0.00108  |grad[c]|=5.36e-05  |ddm|=0.000287  |maxRot[o]|=0.0368
macro iter 103 ( 19 JK    4 micro), CASSCF E = -13979.9791277755  dE =  7.29445674e-06  S^2 = 35.7500000
               |grad[o]|=0.00153  |grad[c]|=0.000487  |ddm|=0.000218  |maxRot[o]|=0.029
macro iter 104 ( 21 JK    4 micro), CASSCF E = -13979.9791362472  dE = -8.47172851e-06  S^2 = 35.7500000
               |grad[o]|=0.00151  |grad[c]|=0.000152  |ddm|=0.00015  |maxRot[o]|=0.0348
macro iter 105 ( 20 JK    4 micro), CASSCF E = -13979.9791344976  dE =  1.74965498e-06  S^2 = 35.7500000
               |grad[o]|=0.00103  |grad[c]|=0.000332  |ddm|=0.000307  |maxRot[o]|=0.00933
macro iter 106 ( 18 JK    3 micro), CASSCF E = -13979.9791388392  dE = -4.34161848e-06  S^2 = 35.7500000
               |grad[o]|=0.00103  |grad[c]|=6.08e-05  |ddm|=0.000186  |maxRot[o]|=0.0269
macro iter 107 ( 22 JK    4 micro), CASSCF E = -13979.9791419909  dE = -3.15172838e-06  S^2 = 35.7500000
               |grad[o]|=0.000787  |grad[c]|=0.000174  |ddm|=0.000321  |maxRot[o]|=0.0328
macro iter 108 ( 16 JK    4 micro), CASSCF E = -13979.9791444542  dE = -2.46327545e-06  S^2 = 35.7500000
               |grad[o]|=0.000945  |grad[c]|=0.000436  |ddm|=0.000149  |maxRot[o]|=0.0306
macro iter 109 (  7 JK    2 micro), CASSCF E = -13979.9791465107  dE = -2.05651122e-06  S^2 = 35.7500000
               |grad[o]|=0.000563  |grad[c]|=6.44e-05  |ddm|=0.000324  |maxRot[o]|=0.0532
macro iter 110 ( 18 JK    4 micro), CASSCF E = -13979.9791476648  dE = -1.15405237e-06  S^2 = 35.7500000
               |grad[o]|=0.0019  |grad[c]|=0.000297  |ddm|=0.000265  |maxRot[o]|=0.00599
macro iter 111 ( 26 JK    4 micro), CASSCF E = -13979.9791494836  dE = -1.81889664e-06  S^2 = 35.7500000
               |grad[o]|=0.00074  |grad[c]|=8.15e-05  |ddm|=0.000146  |maxRot[o]|=0.0174
macro iter 112 ( 26 JK    4 micro), CASSCF E = -13979.9791501583  dE = -6.74623152e-07  S^2 = 35.7500000
               |grad[o]|=0.00032  |grad[c]|=5.98e-05  |ddm|=0.000117  |maxRot[o]|=0.0153
macro iter 113 ( 25 JK    4 micro), CASSCF E = -13979.9791503380  dE = -1.79694325e-07  S^2 = 35.7500000
               |grad[o]|=0.000274  |grad[c]|=4.9e-05  |ddm|=8.59e-05  |maxRot[o]|=0.00527
macro iter 114 ( 10 JK    2 micro), CASSCF E = -13979.9791505033  dE = -1.65313395e-07  S^2 = 35.7500000
               |grad[o]|=0.000454  |grad[c]|=2.93e-05  |ddm|=8.32e-05  |maxRot[o]|=0.00225
macro iter 115 (  7 JK    1 micro), CASSCF E = -13979.9791506250  dE = -1.21684934e-07  S^2 = 35.7500000
               |grad[o]|=0.000146  |grad[c]|=6.6e-05  |ddm|=3.79e-05  |maxRot[o]|=0.00572
macro iter 116 ( 19 JK    4 micro), CASSCF E = -13979.9791511844  dE = -5.59468390e-07  S^2 = 35.7500000
               |grad[o]|=0.000249  |grad[c]|=0.000138  |ddm|=9.69e-05  |maxRot[o]|=0.0279
macro iter 117 ( 23 JK    4 micro), CASSCF E = -13979.9791510621  dE =  1.22310666e-07  S^2 = 35.7500000
               |grad[o]|=0.000475  |grad[c]|=0.00012  |ddm|=0.000139  |maxRot[o]|=0.0133
macro iter 118 ( 16 JK    4 micro), CASSCF E = -13979.9791513958  dE = -3.33693606e-07  S^2 = 35.7500000
               |grad[o]|=0.000269  |grad[c]|=0.000165  |ddm|=8.09e-05  |maxRot[o]|=0.0207
macro iter 119 ( 22 JK    4 micro), CASSCF E = -13979.9791514638  dE = -6.80156518e-08  S^2 = 35.7500000
               |grad[o]|=0.000275  |grad[c]|=0.000109  |ddm|=7.94e-05  |maxRot[o]|=0.00603
1-step CASSCF converged in 119 macro (2160 JK 441 micro) steps
CASSCF canonicalization
Density matrix diagonal elements [0.99717056 0.98867541 0.9906185  0.99921064 0.99971583 0.99633855
 0.98226729 0.99184079 0.99437303 0.46159424 0.9877185  0.57257453
 0.03790213]
CASSCF energy = -13979.9791514638
CASCI E = -13979.9791514638  E(CI) = -27.4672029421727  S^2 = 35.7500000
tot grids = 369600
MC-PDFT state 0 E = -13988.457395096726, Eot(tPBE) = -398.921632939615
Natural occ [1.         1.         1.         0.99999999 0.99999999 0.99999933
 0.99999933 0.99999548 0.99999548 0.99845078 0.99845078 0.00155442
 0.00155442]
Natural orbital (expansion on meta-Lowdin AOs) in CAS space
               #1        #2        #3        #4        #5       
0 Er 1s          0.00000   0.00000  -0.00000   0.00000  -0.00000
0 Er 2s         -0.00000  -0.00000   0.00000  -0.00000   0.00000
0 Er 3s          0.00000   0.00000  -0.00000   0.00000  -0.00000
0 Er 4s         -0.00007  -0.00008   0.00006  -0.00003   0.00002
0 Er 5s          0.00090   0.00046  -0.00067   0.00236   0.00116
0 Er 6s          0.01076  -0.00831  -0.01265   0.06174   0.03473
0 Er 7s          0.00001   0.00238  -0.00123   0.00077   0.00096
0 Er 2px         0.00000   0.00000  -0.00000   0.00000  -0.00000
0 Er 2py        -0.00000   0.00000  -0.00000  -0.00000  -0.00000
0 Er 2pz         0.00000  -0.00000   0.00000   0.00000  -0.00000
0 Er 3px         0.00000   0.00000  -0.00000   0.00000  -0.00000
0 Er 3py        -0.00000  -0.00000   0.00000   0.00000   0.00000
0 Er 3pz         0.00000   0.00000   0.00000   0.00000  -0.00000
0 Er 4px        -0.00003  -0.00001   0.00010   0.00011   0.00013
0 Er 4py         0.00011   0.00027  -0.00017   0.00002  -0.00008
0 Er 4pz        -0.00010  -0.00016   0.00003  -0.00008   0.00001
0 Er 5px        -0.00015  -0.00097   0.00027   0.00142   0.00063
0 Er 5py         0.00313   0.00538  -0.00520  -0.00097  -0.00479
0 Er 5pz        -0.00348  -0.00299   0.00433   0.00090   0.00167
0 Er 6px         0.01392  -0.01178  -0.01029  -0.01692  -0.01556
0 Er 6py         0.00765  -0.01151   0.00626  -0.00951  -0.00710
0 Er 6pz        -0.01643   0.01647   0.01279   0.02771   0.00947
0 Er 7px         0.00290  -0.00520   0.00102  -0.00448  -0.00025
0 Er 7py         0.00380   0.00119   0.00092  -0.00129  -0.00114
0 Er 7pz        -0.00616   0.00242  -0.00055   0.00334   0.00324
0 Er 3dxy        0.00000   0.00000  -0.00000   0.00000  -0.00000
0 Er 3dyz       -0.00000  -0.00000   0.00000   0.00000   0.00000
0 Er 3dz^2      -0.00000  -0.00000  -0.00000  -0.00000   0.00000
0 Er 3dxz       -0.00000   0.00000  -0.00000   0.00000  -0.00000
0 Er 3dx2-y2    -0.00000  -0.00000   0.00000  -0.00000   0.00000
0 Er 4dxy       -0.00024  -0.00004   0.00025   0.00006   0.00030
0 Er 4dyz       -0.00009  -0.00008   0.00023  -0.00003  -0.00000
0 Er 4dz^2       0.00001  -0.00016   0.00013   0.00013  -0.00011
0 Er 4dxz        0.00009  -0.00004  -0.00022  -0.00023  -0.00017
0 Er 4dx2-y2    -0.00019  -0.00002   0.00025   0.00005   0.00017
0 Er 5dxy       -0.02371  -0.00272   0.03572   0.00768   0.03040
0 Er 5dyz       -0.01833   0.00100   0.02557  -0.00141  -0.00145
0 Er 5dz^2      -0.00603  -0.00283   0.00870   0.01746  -0.01059
0 Er 5dxz        0.01709  -0.01420  -0.02266  -0.02879  -0.01711
0 Er 5dx2-y2    -0.03182   0.01523   0.02383   0.01031   0.02138
0 Er 6dxy        0.00305   0.00325  -0.00159   0.00262   0.00204
0 Er 6dyz       -0.00375   0.00915  -0.00088   0.00001  -0.00546
0 Er 6dz^2      -0.00225  -0.00139  -0.00118   0.00437   0.00023
0 Er 6dxz        0.00540  -0.00527  -0.00112  -0.00692  -0.00050
0 Er 6dx2-y2    -0.00587   0.00896   0.00017   0.00205   0.00225
0 Er 4f-3       -0.04843  -0.14442   0.06153  -0.04254  -0.00366
0 Er 4f-2        0.00761  -0.01003  -0.00525  -0.03484  -0.02366
0 Er 4f-1       -0.02458  -0.05422   0.00842  -0.02877   0.01871
0 Er 4f+0        0.04724   0.12964  -0.00092   0.07233  -0.03664
0 Er 4f+1        0.01444   0.09218   0.02473   0.04587   0.03348
0 Er 4f+2        0.02130   0.06150   0.01110   0.04555  -0.01756
0 Er 4f+3        0.01566   0.02362  -0.04505  -0.01046  -0.01679
0 Er 5f-3        0.00492   0.01148  -0.00269   0.00237  -0.00499
0 Er 5f-2        0.00014  -0.00610  -0.00283   0.00540   0.00499
0 Er 5f-1        0.00191   0.00492   0.00332   0.00073   0.00016
0 Er 5f+0       -0.00335  -0.01162   0.00264  -0.00155  -0.00104
0 Er 5f+1       -0.00501  -0.00140  -0.00076  -0.00680  -0.00032
0 Er 5f+2       -0.00469  -0.00694   0.00205  -0.00029   0.00418
0 Er 5f+3        0.00159  -0.00606   0.00228   0.00008   0.00520
0 Er 5g-4        0.00001   0.00027   0.00013   0.00028  -0.00012
0 Er 5g-3        0.00002   0.00094   0.00028  -0.00047  -0.00092
0 Er 5g-2       -0.00032  -0.00032  -0.00018   0.00081  -0.00026
0 Er 5g-1       -0.00004   0.00046   0.00025  -0.00040   0.00043
0 Er 5g+0       -0.00077  -0.00003   0.00040   0.00034  -0.00022
0 Er 5g+1        0.00006   0.00021  -0.00020  -0.00054   0.00036
0 Er 5g+2        0.00004  -0.00107  -0.00051   0.00038   0.00021
0 Er 5g+3        0.00002  -0.00014   0.00033   0.00002   0.00055
0 Er 5g+4       -0.00050   0.00047  -0.00000  -0.00003  -0.00083
1 C 1s          -0.00000   0.00000  -0.00000   0.00000  -0.00000
1 C 2s           0.00029  -0.00006   0.00063  -0.00013   0.00012
1 C 3s           0.00016  -0.00007   0.00006  -0.00012  -0.00003
1 C 2px         -0.05864   0.07139   0.05543   0.01386   0.01106
1 C 2py         -0.05805   0.07040   0.05383   0.01375   0.01068
1 C 2pz          0.08586  -0.10309  -0.07889  -0.02010  -0.01568
1 C 3px         -0.00811   0.01111   0.00909   0.00200   0.00167
1 C 3py         -0.00801   0.01081   0.00879   0.00210   0.00169
1 C 3pz          0.01157  -0.01584  -0.01296  -0.00295  -0.00242
1 C 3dxy         0.00023   0.00030   0.00061   0.00003   0.00011
1 C 3dyz         0.00137  -0.00278  -0.00266  -0.00047  -0.00045
1 C 3dz^2       -0.00047  -0.00039  -0.00089  -0.00008  -0.00018
1 C 3dxz        -0.00149   0.00282   0.00261   0.00049   0.00044
1 C 3dx2-y2      0.00201  -0.00391  -0.00366  -0.00067  -0.00063
2 C 1s          -0.00000   0.00000   0.00000   0.00000   0.00000
2 C 2s           0.00020  -0.00055  -0.00021  -0.00024  -0.00021
2 C 3s           0.00014   0.00009   0.00019  -0.00019  -0.00005
2 C 2px          0.00858  -0.01406  -0.01025  -0.00207  -0.00116
2 C 2py          0.00795  -0.01268  -0.00964  -0.00158  -0.00068
2 C 2pz         -0.01227   0.01967   0.01419   0.00274   0.00138
2 C 3px          0.00075  -0.00196  -0.00181  -0.00040  -0.00024
2 C 3py          0.00055  -0.00209  -0.00210  -0.00011  -0.00019
2 C 3pz         -0.00106   0.00296   0.00272   0.00045   0.00038
2 C 3dxy         0.00114  -0.00136  -0.00099  -0.00023  -0.00015
2 C 3dyz         0.00563  -0.00828  -0.00704  -0.00147  -0.00127
2 C 3dz^2       -0.00219   0.00269   0.00204   0.00051   0.00040
2 C 3dxz        -0.00567   0.00822   0.00692   0.00155   0.00128
2 C 3dx2-y2      0.00796  -0.01150  -0.00953  -0.00211  -0.00172
3 C 1s          -0.00001  -0.00000  -0.00001   0.00000  -0.00000
3 C 2s           0.00105   0.00127   0.00228  -0.00012   0.00059
3 C 3s           0.00016   0.00025   0.00035  -0.00046  -0.00027
3 C 2px          0.06963  -0.08059  -0.05797  -0.01574  -0.01111
3 C 2py          0.06799  -0.08053  -0.05891  -0.01548  -0.01142
3 C 2pz         -0.09543   0.11332   0.08583   0.02205   0.01670
3 C 3px          0.01020  -0.01306  -0.01008  -0.00261  -0.00205
3 C 3py          0.00980  -0.01298  -0.00981  -0.00179  -0.00134
3 C 3pz         -0.01484   0.01883   0.01445   0.00368   0.00273
3 C 3dxy        -0.00065   0.00030   0.00018   0.00014   0.00016
3 C 3dyz        -0.00178   0.00419   0.00402   0.00080   0.00067
3 C 3dz^2        0.00109   0.00003   0.00044  -0.00018  -0.00009
3 C 3dxz         0.00183  -0.00426  -0.00409  -0.00057  -0.00055
3 C 3dx2-y2     -0.00249   0.00575   0.00552   0.00103   0.00090
4 C 1s          -0.00001  -0.00000  -0.00001   0.00001   0.00000
4 C 2s           0.00571  -0.00139   0.00566  -0.00145   0.00091
4 C 3s           0.00057   0.00012   0.00028  -0.00109  -0.00057
4 C 2px          0.01122   0.05225   0.07432   0.00548   0.01096
4 C 2py         -0.00564   0.05681   0.06113   0.00841   0.00861
4 C 2pz         -0.00537  -0.07975  -0.10110  -0.01003  -0.01451
4 C 3px          0.00271   0.00348   0.00565  -0.00046   0.00022
4 C 3py          0.00197   0.00361   0.00621   0.00108   0.00132
4 C 3pz         -0.00355  -0.00606  -0.00931  -0.00031  -0.00126
4 C 3dxy        -0.00042  -0.00094  -0.00182  -0.00024  -0.00045
4 C 3dyz        -0.01110   0.02273   0.02151   0.00427   0.00390
4 C 3dz^2       -0.00022   0.00189   0.00240   0.00031   0.00056
4 C 3dxz         0.01098  -0.02235  -0.02148  -0.00381  -0.00369
4 C 3dx2-y2     -0.01583   0.02985   0.02778   0.00539   0.00493
5 C 1s           0.00001   0.00000   0.00001   0.00000   0.00000
5 C 2s          -0.00219  -0.00123  -0.00189  -0.00013  -0.00061
5 C 3s           0.00011   0.00037   0.00035  -0.00049  -0.00021
5 C 2px          0.05558  -0.07920  -0.06772  -0.01512  -0.01338
5 C 2py          0.05845  -0.07723  -0.06374  -0.01495  -0.01227
5 C 2pz         -0.08133   0.11149   0.09193   0.02167   0.01754
5 C 3px          0.00881  -0.01392  -0.01257  -0.00307  -0.00254
5 C 3py          0.00781  -0.01424  -0.01257  -0.00210  -0.00198
5 C 3pz         -0.01163   0.02033   0.01840   0.00348   0.00314
5 C 3dxy         0.00056  -0.00111  -0.00101  -0.00026  -0.00029
5 C 3dyz         0.00003   0.00246   0.00320   0.00056   0.00065
5 C 3dz^2       -0.00208   0.00179   0.00135   0.00050   0.00038
5 C 3dxz        -0.00021  -0.00281  -0.00363  -0.00032  -0.00061
5 C 3dx2-y2     -0.00019   0.00362   0.00461   0.00059   0.00081
6 C 1s          -0.00000   0.00000  -0.00000   0.00000  -0.00000
6 C 2s           0.00155   0.00007   0.00108  -0.00027   0.00018
6 C 3s           0.00004   0.00007   0.00011  -0.00017  -0.00009
6 C 2px         -0.00736  -0.00893  -0.01633  -0.00129  -0.00251
6 C 2py         -0.01145  -0.00859  -0.01844  -0.00064  -0.00290
6 C 2pz          0.01342   0.01261   0.02510   0.00139   0.00395
6 C 3px         -0.00080  -0.00140  -0.00227  -0.00033  -0.00043
6 C 3py         -0.00057  -0.00165  -0.00248  -0.00009  -0.00031
6 C 3pz          0.00134   0.00213   0.00352   0.00024   0.00056
6 C 3dxy        -0.00257   0.00340   0.00280   0.00066   0.00054
6 C 3dyz         0.00464  -0.00749  -0.00664  -0.00135  -0.00121
6 C 3dz^2        0.00393  -0.00554  -0.00454  -0.00100  -0.00084
6 C 3dxz        -0.00448   0.00710   0.00626   0.00136   0.00118
6 C 3dx2-y2      0.00630  -0.01012  -0.00907  -0.00184  -0.00168
7 C 1s           0.00002  -0.00003  -0.00000   0.00003   0.00001
7 C 2s           0.00300  -0.00213   0.00354  -0.00323  -0.00095
7 C 3s           0.00154   0.00025  -0.00046  -0.00305  -0.00221
7 C 2px         -0.14640   0.21789   0.19148   0.04211   0.03362
7 C 2py         -0.14437   0.22225   0.19398   0.04063   0.03401
7 C 2pz          0.23002  -0.34637  -0.29589  -0.06252  -0.05564
7 C 3px          0.00296   0.01699   0.02400  -0.00002   0.00213
7 C 3py          0.00184   0.01674   0.02489   0.00212   0.00424
7 C 3pz         -0.00393  -0.02597  -0.03533  -0.00039  -0.00533
7 C 3dxy        -0.02306   0.01202  -0.00111   0.00282  -0.00106
7 C 3dyz         0.00324  -0.01598  -0.01851  -0.00273  -0.00304
7 C 3dz^2        0.03369  -0.02049  -0.00098  -0.00393   0.00131
7 C 3dxz        -0.00075   0.01596   0.01889   0.00315   0.00335
7 C 3dx2-y2      0.00760  -0.02180  -0.02222  -0.00378  -0.00397
8 O 1s           0.00004  -0.00002   0.00001   0.00000   0.00001
8 O 2s          -0.00134  -0.00186  -0.00024  -0.00404  -0.00358
8 O 3s           0.00021   0.00159  -0.00082  -0.00334  -0.00210
8 O 2px          0.18252  -0.16335  -0.03828  -0.02496   0.00466
8 O 2py          0.21909  -0.15851  -0.04829  -0.02411   0.00127
8 O 2pz         -0.36987   0.26226   0.05431   0.04396  -0.00485
8 O 3px          0.02362  -0.02800  -0.01896  -0.00788  -0.00429
8 O 3py          0.02839  -0.03008  -0.01862  -0.00537  -0.00497
8 O 3pz         -0.03967   0.04290   0.02699   0.01354   0.00787
8 O 3dxy         0.00119   0.00315   0.00735   0.00144   0.00166
8 O 3dyz         0.00175  -0.00652  -0.00736  -0.00131  -0.00242
8 O 3dz^2       -0.00480  -0.00612  -0.01083  -0.00019  -0.00205
8 O 3dxz        -0.00296   0.00547   0.00502   0.00172   0.00165
8 O 3dx2-y2      0.00507  -0.00817  -0.01031  -0.00281  -0.00318
9 O 1s          -0.00003  -0.00001  -0.00001   0.00001   0.00000
9 O 2s          -0.00942   0.00032  -0.00614  -0.00498  -0.00253
9 O 3s           0.00202   0.00133   0.00199  -0.00284  -0.00206
9 O 2px         -0.30232  -0.06156  -0.28571  -0.00157  -0.05444
9 O 2py         -0.41366  -0.05368  -0.37659   0.00682  -0.07476
9 O 2pz          0.44134   0.09903   0.43624   0.00015   0.08176
9 O 3px          0.01397  -0.01352  -0.00435  -0.00751  -0.00366
9 O 3py          0.01280  -0.01375  -0.01184  -0.00742  -0.00183
9 O 3pz         -0.02283   0.02404   0.01630   0.00978   0.00393
9 O 3dxy         0.01455  -0.00688   0.00094  -0.00103   0.00122
9 O 3dyz         0.01090  -0.00980  -0.00713  -0.00355  -0.00143
9 O 3dz^2       -0.02150   0.01017  -0.00220   0.00163  -0.00041
9 O 3dxz        -0.01088   0.01151   0.00734   0.00339   0.00203
9 O 3dx2-y2      0.01032  -0.01314  -0.00888  -0.00357  -0.00062
10 H 1s          0.00036  -0.00006  -0.00011  -0.00009  -0.00010
10 H 2s          0.00020  -0.00004   0.00001  -0.00014  -0.00007
10 H 2px        -0.00374   0.00541   0.00455   0.00099   0.00084
10 H 2py        -0.00364   0.00527   0.00442   0.00098   0.00082
10 H 2pz         0.00531  -0.00769  -0.00647  -0.00142  -0.00119
11 H 1s         -0.00093   0.00079  -0.00019   0.00013  -0.00003
11 H 2s         -0.00009   0.00025   0.00023  -0.00021  -0.00007
11 H 2px        -0.00014   0.00016   0.00022   0.00005   0.00011
11 H 2py        -0.00026   0.00022   0.00022   0.00011   0.00008
11 H 2pz         0.00025  -0.00029  -0.00030  -0.00007  -0.00008
12 H 1s          0.00053   0.00058   0.00100  -0.00045  -0.00027
12 H 2s          0.00113   0.00157   0.00116  -0.00121  -0.00081
12 H 2px         0.00400  -0.00478  -0.00375  -0.00104  -0.00075
12 H 2py         0.00397  -0.00520  -0.00376  -0.00065  -0.00039
12 H 2pz        -0.00568   0.00720   0.00543   0.00118   0.00104
13 H 1s         -0.00132  -0.00003  -0.00118  -0.00057  -0.00052
13 H 2s         -0.00034   0.00156  -0.00006  -0.00132  -0.00084
13 H 2px         0.00419  -0.00561  -0.00488  -0.00117  -0.00086
13 H 2py         0.00293  -0.00543  -0.00442  -0.00062  -0.00056
13 H 2pz        -0.00508   0.00813   0.00692   0.00132   0.00113
14 H 1s         -0.00068  -0.00019  -0.00097   0.00005  -0.00029
14 H 2s         -0.00003   0.00009   0.00013  -0.00024  -0.00010
14 H 2px        -0.00080   0.00040  -0.00001   0.00006   0.00000
14 H 2py        -0.00067   0.00031  -0.00008   0.00008   0.00001
14 H 2pz         0.00108  -0.00047   0.00004  -0.00016  -0.00003
15 N 1s         -0.00017  -0.00053   0.00006   0.00119   0.00123
15 N 2s         -0.01984  -0.07483  -0.00703   0.18412   0.18428
15 N 3s         -0.00626  -0.00813   0.00042   0.04093   0.03395
15 N 2px         0.02186   0.00043   0.04805   0.10787  -0.36516
15 N 2py        -0.03815  -0.15461   0.10488   0.41562  -0.19540
15 N 2pz        -0.01848  -0.10251   0.15180   0.24589  -0.59184
15 N 3px         0.00225  -0.00371   0.00233  -0.01184  -0.02017
15 N 3py        -0.01043  -0.00381   0.00982   0.03585   0.00445
15 N 3pz         0.00152  -0.00598  -0.00099   0.00933  -0.01851
15 N 3dxy        0.00698   0.00931  -0.00665   0.00033  -0.01233
15 N 3dyz       -0.00528  -0.01294   0.00608  -0.00093   0.00364
15 N 3dz^2       0.00255   0.00426  -0.00516  -0.00532   0.01612
15 N 3dxz       -0.00326  -0.00775  -0.00092   0.02795   0.02903
15 N 3dx2-y2    -0.00086   0.00048   0.00369  -0.03273  -0.01459
16 O 1s         -0.00006  -0.00012   0.00006   0.00010   0.00014
16 O 2s          0.01039   0.02338  -0.01152  -0.00811  -0.01733
16 O 3s          0.00028   0.00009  -0.00331   0.01452   0.01081
16 O 2px         0.16783   0.20851  -0.29105   0.44160   0.35402
16 O 2py        -0.11069  -0.05622   0.15103  -0.61037  -0.08317
16 O 2pz        -0.02897  -0.01242  -0.02383  -0.15629   0.28812
16 O 3px        -0.00313  -0.00275   0.00068  -0.02214   0.01534
16 O 3py        -0.00131   0.00698  -0.00747   0.00969   0.03319
16 O 3pz         0.00456   0.00934  -0.01178  -0.02466   0.02381
16 O 3dxy        0.00186   0.00216  -0.00060   0.00560  -0.00769
16 O 3dyz        0.00112  -0.00088  -0.00283   0.01636   0.00767
16 O 3dz^2       0.00206   0.00566  -0.00547  -0.00835   0.01166
16 O 3dxz       -0.00469  -0.00733   0.00624  -0.00839   0.00037
16 O 3dx2-y2     0.00475   0.00669  -0.00855   0.01407   0.01150
17 O 1s         -0.00001  -0.00007  -0.00002   0.00022   0.00018
17 O 2s         -0.02430  -0.02800   0.03536  -0.03715  -0.01183
17 O 3s          0.00365   0.00443  -0.00668   0.00125  -0.00050
17 O 2px         0.02785   0.02580  -0.07708   0.09885   0.19560
17 O 2py         0.30905   0.59135  -0.39687  -0.25705  -0.25212
17 O 2pz        -0.14739  -0.22912   0.14391  -0.09460   0.29488
17 O 3px         0.00654   0.00589  -0.01065  -0.02137   0.00005
17 O 3py        -0.00381  -0.00098   0.00001  -0.00220   0.01722
17 O 3pz        -0.00542   0.00169  -0.00007  -0.00748   0.03086
17 O 3dxy       -0.00724  -0.01188   0.00602   0.00073   0.01530
17 O 3dyz       -0.00435  -0.00457   0.00675   0.00532  -0.00494
17 O 3dz^2      -0.00135  -0.00547   0.00285   0.00689   0.00004
17 O 3dxz        0.00458   0.00809  -0.00755  -0.00325   0.01109
17 O 3dx2-y2    -0.00518  -0.00413   0.00539  -0.01237   0.01121
18 N 1s          0.00000  -0.00004  -0.00003  -0.00006  -0.00004
18 N 2s         -0.00336  -0.00327   0.00133  -0.02043  -0.01112
18 N 3s          0.00218  -0.00111  -0.00112  -0.01005  -0.00543
18 N 2px         0.01857   0.00672  -0.00798   0.00659  -0.00622
18 N 2py         0.01087  -0.01277   0.02522   0.00288   0.00383
18 N 2pz         0.01264  -0.00046   0.00175  -0.01060  -0.01352
18 N 3px        -0.00051   0.00253   0.00131   0.00412   0.00158
18 N 3py         0.00379  -0.00242   0.00528  -0.00038   0.00043
18 N 3pz         0.00296  -0.00074   0.00137  -0.00348  -0.00262
18 N 3dxy       -0.00157   0.00101   0.00134   0.00146   0.00031
18 N 3dyz        0.00063  -0.00023   0.00022  -0.00144  -0.00044
18 N 3dz^2      -0.00251   0.00133   0.00296   0.00176   0.00286
18 N 3dxz        0.00077  -0.00087  -0.00166  -0.00259  -0.00122
18 N 3dx2-y2     0.00033   0.00033  -0.00035   0.00073  -0.00018
19 N 1s          0.00001  -0.00001  -0.00001   0.00000  -0.00000
19 N 2s          0.00023   0.00128   0.00111   0.00184   0.00095
19 N 3s          0.00081   0.00004  -0.00037  -0.00381  -0.00195
19 N 2px         0.00101  -0.00166  -0.00151  -0.00243  -0.00190
19 N 2py         0.00034   0.00089  -0.00047   0.00061  -0.00037
19 N 2pz         0.00193  -0.00031  -0.00092   0.00140  -0.00013
19 N 3px        -0.00069   0.00069   0.00050   0.00260   0.00134
19 N 3py         0.00023   0.00003   0.00029   0.00082   0.00042
19 N 3pz         0.00113  -0.00075  -0.00095  -0.00334  -0.00199
19 N 3dxy       -0.00093   0.00056  -0.00089   0.00002   0.00030
19 N 3dyz        0.00006  -0.00037   0.00182   0.00022   0.00021
19 N 3dz^2       0.00232  -0.00023  -0.00047   0.00003  -0.00126
19 N 3dxz        0.00050   0.00033  -0.00075  -0.00071  -0.00073
19 N 3dx2-y2    -0.00120  -0.00022   0.00106   0.00050   0.00102
20 N 1s          0.00000  -0.00000  -0.00000   0.00001   0.00000
20 N 2s          0.00012   0.00006  -0.00003  -0.00076  -0.00051
20 N 3s          0.00027   0.00035   0.00002  -0.00128  -0.00057
20 N 2px        -0.01238  -0.00167   0.00653   0.00386   0.00973
20 N 2py        -0.00612   0.00774  -0.01487  -0.00110  -0.00113
20 N 2pz        -0.01164  -0.00074   0.00139  -0.00132   0.00521
20 N 3px        -0.00158  -0.00001   0.00087   0.00111   0.00138
20 N 3py        -0.00060   0.00058  -0.00109  -0.00008  -0.00004
20 N 3pz        -0.00093   0.00006   0.00014  -0.00077   0.00020
20 N 3dxy        0.00034  -0.00026   0.00068  -0.00002  -0.00009
20 N 3dyz       -0.00017   0.00047  -0.00086   0.00004  -0.00007
20 N 3dz^2      -0.00100  -0.00009   0.00001  -0.00007   0.00050
20 N 3dxz       -0.00018   0.00003   0.00029   0.00023   0.00027
20 N 3dx2-y2     0.00039   0.00016  -0.00046  -0.00010  -0.00036
21 N 1s          0.00000   0.00001  -0.00002   0.00001   0.00004
21 N 2s          0.00029  -0.00494   0.00308  -0.00346  -0.01312
21 N 3s         -0.00124  -0.00144   0.00182  -0.00288  -0.00009
21 N 2px        -0.00190  -0.00190   0.00309  -0.00242  -0.00909
21 N 2py         0.00116  -0.00458  -0.00048  -0.00418  -0.00582
21 N 2pz        -0.00212  -0.00279   0.00743  -0.00134  -0.01485
21 N 3px         0.00201  -0.00432  -0.00270  -0.00280  -0.00703
21 N 3py         0.00003  -0.00222  -0.00086  -0.00485  -0.00242
21 N 3pz        -0.00518   0.00329   0.00713   0.00033   0.00614
21 N 3dxy       -0.00009  -0.00078  -0.00013  -0.00145  -0.00029
21 N 3dyz       -0.00256   0.00158   0.00321  -0.00082   0.00164
21 N 3dz^2      -0.00150   0.00149   0.00222   0.00067   0.00510
21 N 3dxz        0.00131  -0.00244  -0.00078  -0.00082  -0.00154
21 N 3dx2-y2    -0.00003   0.00069  -0.00007   0.00105  -0.00001
22 H 1s         -0.00170   0.00472   0.00155  -0.00043   0.00049
22 H 2s         -0.00217   0.00469   0.00241  -0.00075   0.00207
22 H 2px         0.00150  -0.00290  -0.00234  -0.00089  -0.00068
22 H 2py         0.00043  -0.00063  -0.00030  -0.00082  -0.00149
22 H 2pz        -0.00409   0.00606   0.00502   0.00052   0.00037
23 H 1s          0.00068  -0.00437  -0.00093  -0.00098   0.00173
23 H 2s          0.00124   0.00418  -0.00267  -0.00246   0.00216
23 H 2px         0.00028  -0.00070   0.00012   0.00049  -0.00275
23 H 2py        -0.00041  -0.00018   0.00053   0.00054   0.00014
23 H 2pz         0.00035  -0.00024  -0.00032   0.00085   0.00145
24 H 1s         -0.00489   0.00523   0.00021  -0.00364   0.01246
24 H 2s          0.00061  -0.00050  -0.00215  -0.00528  -0.00282
24 H 2px        -0.00034   0.00044  -0.00029  -0.00077  -0.00223
24 H 2py         0.00067  -0.00130  -0.00159  -0.00106  -0.00120
24 H 2pz        -0.00017   0.00006  -0.00031  -0.00089   0.00005
25 N 1s          0.00001   0.00001  -0.00002   0.00002   0.00000
25 N 2s         -0.00648  -0.00900   0.00837  -0.00165  -0.00035
25 N 3s         -0.00212  -0.00201   0.00248  -0.00231   0.00010
25 N 2px         0.00926   0.01157  -0.00950   0.00197  -0.00422
25 N 2py         0.00954   0.01128  -0.00913  -0.00033  -0.00134
25 N 2pz         0.00238   0.00757  -0.00495   0.00299  -0.00387
25 N 3px         0.00484   0.00059  -0.00573   0.00026   0.00003
25 N 3py         0.00391  -0.00023  -0.00051   0.00076  -0.00306
25 N 3pz        -0.00300   0.00438   0.00097   0.00565   0.00084
25 N 3dxy       -0.00091   0.00083  -0.00020  -0.00020   0.00065
25 N 3dyz       -0.00027   0.00105  -0.00083  -0.00085   0.00070
25 N 3dz^2       0.00033  -0.00024   0.00069  -0.00036  -0.00028
25 N 3dxz        0.00029  -0.00137   0.00010  -0.00194  -0.00050
25 N 3dx2-y2    -0.00188   0.00117   0.00318   0.00101  -0.00090
26 H 1s          0.00451   0.00617   0.00086  -0.00104  -0.00366
26 H 2s          0.00298  -0.00046  -0.00050  -0.00555  -0.00248
26 H 2px        -0.00049   0.00097  -0.00074   0.00069   0.00038
26 H 2py         0.00067   0.00012  -0.00056  -0.00007   0.00068
26 H 2pz        -0.00050   0.00075  -0.00026   0.00115   0.00041
27 H 1s         -0.00413  -0.00619  -0.00050  -0.00323   0.00372
27 H 2s         -0.00080   0.00199  -0.00119  -0.00266  -0.00220
27 H 2px         0.00153   0.00044  -0.00037   0.00027  -0.00258
27 H 2py        -0.00011   0.00018   0.00110   0.00183  -0.00312
27 H 2pz         0.00029   0.00091   0.00039   0.00102  -0.00135
28 H 1s          0.00287   0.00658  -0.00493  -0.00281  -0.00127
28 H 2s         -0.00038   0.00128   0.00229  -0.00098  -0.00110
28 H 2px         0.00211  -0.00149  -0.00285  -0.00019   0.00023
28 H 2py         0.00215  -0.00189  -0.00221  -0.00072   0.00030
28 H 2pz        -0.00242   0.00316   0.00174   0.00136   0.00015
               #6        #7        #8        #9        #10      
0 Er 1s          0.00000  -0.00000   0.00000  -0.00000   0.00000
0 Er 2s         -0.00000   0.00000   0.00000   0.00000  -0.00000
0 Er 3s          0.00000  -0.00000  -0.00000  -0.00000   0.00000
0 Er 4s         -0.00000  -0.00002   0.00000  -0.00001  -0.00002
0 Er 5s          0.00037  -0.00009  -0.00015  -0.00024   0.00206
0 Er 6s          0.00339  -0.00458  -0.00713   0.00201   0.08561
0 Er 7s          0.00065   0.00030   0.00041  -0.00144   0.01830
0 Er 2px        -0.00000   0.00000  -0.00000   0.00000   0.00000
0 Er 2py        -0.00000  -0.00000  -0.00000  -0.00000  -0.00000
0 Er 2pz        -0.00000   0.00000  -0.00000   0.00000  -0.00000
0 Er 3px        -0.00000   0.00001  -0.00001   0.00001   0.00000
0 Er 3py        -0.00001  -0.00000  -0.00001  -0.00002  -0.00000
0 Er 3pz        -0.00000   0.00001  -0.00001   0.00000  -0.00000
0 Er 4px        -0.00002   0.00018  -0.00009   0.00012  -0.00022
0 Er 4py        -0.00008  -0.00010  -0.00010  -0.00034   0.00022
0 Er 4pz        -0.00010   0.00021  -0.00016   0.00007   0.00011
0 Er 5px         0.00023   0.00243  -0.00081   0.00284   0.00658
0 Er 5py         0.00148  -0.00279  -0.00020  -0.00705  -0.01357
0 Er 5pz        -0.00148   0.00350  -0.00384   0.00218   0.00509
0 Er 6px        -0.00277   0.00394   0.00359  -0.00418   0.11448
0 Er 6py        -0.00373   0.00276  -0.00180   0.00367  -0.16073
0 Er 6pz         0.00470  -0.00366  -0.00339   0.00065  -0.02774
0 Er 7px        -0.00011   0.00022   0.00194  -0.00046   0.00616
0 Er 7py         0.00161  -0.00041   0.00233   0.00247  -0.01207
0 Er 7pz         0.00190  -0.00257   0.00130   0.00004  -0.00022
0 Er 3dxy       -0.00001  -0.00000   0.00000   0.00000   0.00004
0 Er 3dyz       -0.00001  -0.00001   0.00000  -0.00001  -0.00002
0 Er 3dz^2       0.00000  -0.00001  -0.00000   0.00000   0.00003
0 Er 3dxz        0.00001   0.00000  -0.00000   0.00001   0.00002
0 Er 3dx2-y2     0.00001   0.00001   0.00000  -0.00001  -0.00002
0 Er 4dxy       -0.00023  -0.00001   0.00008   0.00026  -0.00420
0 Er 4dyz       -0.00019  -0.00018   0.00003  -0.00022   0.00268
0 Er 4dz^2       0.00006  -0.00040  -0.00020   0.00001  -0.00374
0 Er 4dxz        0.00015   0.00001  -0.00013   0.00029  -0.00195
0 Er 4dx2-y2     0.00019   0.00009   0.00001  -0.00036   0.00191
0 Er 5dxy        0.00053   0.00269   0.00373   0.03075  -0.54388
0 Er 5dyz        0.00005   0.00253   0.00193  -0.01191   0.33849
0 Er 5dz^2       0.00199  -0.00201  -0.02843   0.00193  -0.48621
0 Er 5dxz       -0.00692   0.00447  -0.00006   0.00105  -0.25996
0 Er 5dx2-y2    -0.00453  -0.00414  -0.00281  -0.00670   0.24511
0 Er 6dxy        0.00034  -0.00137  -0.00042  -0.00288   0.03774
0 Er 6dyz       -0.00087  -0.00221  -0.00080   0.00135  -0.02969
0 Er 6dz^2      -0.00131   0.00076   0.00271  -0.00094   0.02562
0 Er 6dxz       -0.00015   0.00136  -0.00350   0.00053   0.00995
0 Er 6dx2-y2     0.00322   0.00110  -0.00026  -0.00032  -0.01709
0 Er 4f-3        0.64718   0.05111  -0.32208  -0.49693  -0.00673
0 Er 4f-2        0.65920   0.28237   0.09258   0.59534   0.01278
0 Er 4f-1        0.14183  -0.13705   0.28621  -0.18261  -0.01165
0 Er 4f+0       -0.16274   0.58326  -0.49745   0.18276   0.01227
0 Er 4f+1       -0.07606   0.61406   0.65501  -0.16947  -0.01428
0 Er 4f+2       -0.19983   0.28403  -0.33762  -0.21093  -0.00332
0 Er 4f+3       -0.10867  -0.25261  -0.06148   0.48590   0.01276
0 Er 5f-3       -0.04442  -0.00483   0.02267   0.03281  -0.01200
0 Er 5f-2       -0.04717  -0.01942  -0.00603  -0.03925   0.00365
0 Er 5f-1       -0.00999   0.00855  -0.01946   0.01272   0.00948
0 Er 5f+0        0.00977  -0.03764   0.03321  -0.01192  -0.00792
0 Er 5f+1        0.00492  -0.04226  -0.04571   0.01226  -0.01090
0 Er 5f+2        0.01281  -0.01914   0.02409   0.01442   0.01467
0 Er 5f+3        0.00774   0.01772   0.00594  -0.03260  -0.00811
0 Er 5g-4        0.00009   0.00001  -0.00004  -0.00029   0.00011
0 Er 5g-3        0.00056  -0.00026   0.00002  -0.00019   0.00097
0 Er 5g-2        0.00037  -0.00004  -0.00003   0.00013   0.00454
0 Er 5g-1        0.00028  -0.00039   0.00030  -0.00010  -0.00176
0 Er 5g+0       -0.00011   0.00032  -0.00035   0.00026  -0.00278
0 Er 5g+1        0.00001   0.00037   0.00007   0.00001  -0.00132
0 Er 5g+2       -0.00017   0.00036   0.00006  -0.00012  -0.00152
0 Er 5g+3        0.00016  -0.00002  -0.00006   0.00043   0.00194
0 Er 5g+4        0.00032  -0.00009  -0.00012  -0.00016  -0.00167
1 C 1s           0.00000  -0.00000   0.00000  -0.00000   0.00000
1 C 2s          -0.00012   0.00000  -0.00012   0.00010  -0.00186
1 C 3s          -0.00004   0.00002  -0.00003   0.00000  -0.00022
1 C 2px          0.00749  -0.01046  -0.00073  -0.00086   0.00150
1 C 2py          0.00747  -0.01035  -0.00059  -0.00096   0.00295
1 C 2pz         -0.01060   0.01532   0.00088   0.00120  -0.00277
1 C 3px          0.00118  -0.00170  -0.00013  -0.00012   0.00003
1 C 3py          0.00119  -0.00167  -0.00008  -0.00012   0.00039
1 C 3pz         -0.00169   0.00245   0.00015   0.00017  -0.00018
1 C 3dxy         0.00003  -0.00008  -0.00001   0.00001  -0.00028
1 C 3dyz        -0.00031   0.00048   0.00003   0.00002  -0.00004
1 C 3dz^2       -0.00006   0.00012  -0.00001   0.00001  -0.00026
1 C 3dxz         0.00032  -0.00048  -0.00003  -0.00002  -0.00001
1 C 3dx2-y2     -0.00046   0.00065   0.00004   0.00003  -0.00018
2 C 1s           0.00000   0.00000  -0.00000  -0.00000  -0.00000
2 C 2s          -0.00047  -0.00018   0.00001   0.00009   0.00087
2 C 3s           0.00002   0.00008  -0.00010  -0.00003  -0.00037
2 C 2px         -0.00207   0.00199   0.00026   0.00005   0.00212
2 C 2py         -0.00110   0.00236   0.00021  -0.00009  -0.00041
2 C 2pz          0.00247  -0.00306  -0.00037  -0.00003  -0.00183
2 C 3px         -0.00022   0.00045  -0.00003  -0.00005  -0.00040
2 C 3py         -0.00026   0.00029   0.00012  -0.00000   0.00039
2 C 3pz          0.00041  -0.00050  -0.00007   0.00005  -0.00043
2 C 3dxy        -0.00012   0.00021   0.00002   0.00001  -0.00002
2 C 3dyz        -0.00089   0.00129   0.00012   0.00007   0.00019
2 C 3dz^2        0.00030  -0.00039  -0.00003  -0.00001  -0.00028
2 C 3dxz         0.00090  -0.00130  -0.00008  -0.00007   0.00006
2 C 3dx2-y2     -0.00126   0.00181   0.00010   0.00013  -0.00076
3 C 1s          -0.00000  -0.00000   0.00000   0.00000   0.00001
3 C 2s           0.00103   0.00067  -0.00036  -0.00024  -0.00234
3 C 3s          -0.00004   0.00008  -0.00013  -0.00005  -0.00076
3 C 2px         -0.00819   0.01208   0.00040   0.00130  -0.00632
3 C 2py         -0.00896   0.01128   0.00066   0.00151  -0.00506
3 C 2pz          0.01156  -0.01677  -0.00113  -0.00146   0.00078
3 C 3px         -0.00139   0.00213   0.00006   0.00007   0.00189
3 C 3py         -0.00131   0.00184   0.00025   0.00031  -0.00048
3 C 3pz          0.00211  -0.00292  -0.00007  -0.00028   0.00035
3 C 3dxy         0.00012   0.00010  -0.00003  -0.00003  -0.00098
3 C 3dyz         0.00054  -0.00074  -0.00006   0.00001   0.00007
3 C 3dz^2        0.00013  -0.00001  -0.00006   0.00007  -0.00194
3 C 3dxz        -0.00045   0.00072   0.00014  -0.00000  -0.00008
3 C 3dx2-y2      0.00072  -0.00100  -0.00010   0.00001   0.00054
4 C 1s           0.00000   0.00000   0.00000  -0.00000   0.00002
4 C 2s          -0.00140   0.00010  -0.00118   0.00041  -0.00205
4 C 3s          -0.00024   0.00007  -0.00014  -0.00001  -0.00251
4 C 2px          0.00591  -0.01121  -0.00200   0.00058  -0.00010
4 C 2py          0.00863  -0.01153   0.00057   0.00024  -0.00520
4 C 2pz         -0.01059   0.01655   0.00131  -0.00063   0.00219
4 C 3px          0.00032  -0.00072  -0.00020   0.00045  -0.00172
4 C 3py          0.00062  -0.00088  -0.00004   0.00046   0.00259
4 C 3pz         -0.00093   0.00122   0.00015  -0.00056  -0.00156
4 C 3dxy        -0.00002   0.00031  -0.00004  -0.00001  -0.00153
4 C 3dyz         0.00294  -0.00364  -0.00024  -0.00023   0.00415
4 C 3dz^2        0.00024  -0.00032   0.00006   0.00000   0.00033
4 C 3dxz        -0.00262   0.00361   0.00041   0.00006  -0.00031
4 C 3dx2-y2      0.00313  -0.00526  -0.00028   0.00002   0.00231
5 C 1s           0.00000   0.00000  -0.00000  -0.00000   0.00002
5 C 2s          -0.00117  -0.00065   0.00034   0.00065  -0.00544
5 C 3s          -0.00013  -0.00005  -0.00008  -0.00003  -0.00045
5 C 2px         -0.00874   0.01208   0.00117   0.00124  -0.00080
5 C 2py         -0.00774   0.01237   0.00063   0.00077  -0.00004
5 C 2pz          0.01213  -0.01745  -0.00080  -0.00187   0.00727
5 C 3px         -0.00168   0.00234   0.00005   0.00009   0.00198
5 C 3py         -0.00149   0.00235   0.00015   0.00037  -0.00200
5 C 3pz          0.00223  -0.00334  -0.00030  -0.00027  -0.00222
5 C 3dxy        -0.00024   0.00005   0.00003   0.00017  -0.00269
5 C 3dyz         0.00039  -0.00051   0.00003  -0.00000   0.00112
5 C 3dz^2        0.00008  -0.00032   0.00002   0.00001   0.00002
5 C 3dxz        -0.00036   0.00053   0.00005   0.00003  -0.00118
5 C 3dx2-y2      0.00038  -0.00079  -0.00002   0.00008  -0.00022
6 C 1s          -0.00000  -0.00000   0.00000   0.00000  -0.00000
6 C 2s           0.00022   0.00026  -0.00021  -0.00021   0.00201
6 C 3s          -0.00012  -0.00006  -0.00004   0.00003  -0.00038
6 C 2px         -0.00110   0.00282  -0.00013  -0.00022   0.00233
6 C 2py         -0.00156   0.00223   0.00031   0.00027  -0.00217
6 C 2pz          0.00191  -0.00364  -0.00011  -0.00000  -0.00022
6 C 3px         -0.00029   0.00034  -0.00000  -0.00003  -0.00008
6 C 3py         -0.00010   0.00046   0.00004  -0.00008   0.00062
6 C 3pz          0.00035  -0.00049  -0.00005   0.00001   0.00052
6 C 3dxy         0.00034  -0.00055  -0.00003   0.00001  -0.00047
6 C 3dyz        -0.00083   0.00121   0.00006   0.00009  -0.00056
6 C 3dz^2       -0.00061   0.00084   0.00006   0.00006  -0.00018
6 C 3dxz         0.00081  -0.00115  -0.00004  -0.00008   0.00059
6 C 3dx2-y2     -0.00109   0.00165   0.00011   0.00008  -0.00007
7 C 1s          -0.00001   0.00001  -0.00001   0.00000   0.00013
7 C 2s          -0.00079   0.00008   0.00023   0.00122  -0.02197
7 C 3s          -0.00061   0.00018  -0.00042  -0.00027  -0.00468
7 C 2px          0.02262  -0.03668  -0.00110  -0.00423   0.00148
7 C 2py          0.02445  -0.03630  -0.00187  -0.00599   0.00026
7 C 2pz         -0.03835   0.05555   0.00276   0.00909  -0.01364
7 C 3px          0.00351  -0.00278   0.00001  -0.00111  -0.00185
7 C 3py          0.00346  -0.00262  -0.00086  -0.00023  -0.02632
7 C 3pz         -0.00188   0.00769  -0.00047   0.00043   0.01303
7 C 3dxy         0.00139  -0.00105  -0.00067   0.00072  -0.02854
7 C 3dyz        -0.00293   0.00143   0.00086  -0.00125   0.00030
7 C 3dz^2       -0.00217   0.00166   0.00092   0.00030  -0.01420
7 C 3dxz         0.00287  -0.00185  -0.00042   0.00053   0.01525
7 C 3dx2-y2     -0.00089   0.00480   0.00006  -0.00192  -0.01587
8 O 1s           0.00000   0.00001  -0.00001   0.00001   0.00005
8 O 2s          -0.01142  -0.00780   0.00105   0.00277  -0.01248
8 O 3s          -0.00474  -0.00345   0.00024   0.00002   0.00813
8 O 2px         -0.04033   0.00105   0.00652   0.00511  -0.03328
8 O 2py         -0.00360   0.02593   0.00622  -0.01190   0.05540
8 O 2pz          0.02514  -0.03082  -0.00567   0.01199  -0.03055
8 O 3px         -0.00937   0.00064   0.00161  -0.00056  -0.01727
8 O 3py         -0.00043   0.00750   0.00173  -0.00274   0.00299
8 O 3pz          0.00641  -0.00818  -0.00127   0.00234   0.04985
8 O 3dxy         0.00239   0.00034   0.00000  -0.00001  -0.02256
8 O 3dyz        -0.00006   0.00248   0.00031  -0.00097  -0.02501
8 O 3dz^2        0.00038   0.00271  -0.00046   0.00142  -0.00669
8 O 3dxz         0.00067  -0.00184   0.00016   0.00066   0.04468
8 O 3dx2-y2     -0.00332   0.00053   0.00096  -0.00203   0.00681
9 O 1s          -0.00000   0.00001  -0.00000   0.00001   0.00002
9 O 2s           0.00606   0.01236  -0.00674  -0.00366  -0.00545
9 O 3s           0.00235   0.00425  -0.00281  -0.00199   0.00516
9 O 2px         -0.01059   0.04087  -0.01007  -0.00600  -0.03016
9 O 2py         -0.02551   0.01815   0.01066  -0.00285   0.03923
9 O 2pz          0.01232  -0.05564   0.00448   0.00822   0.00589
9 O 3px         -0.00073   0.00449  -0.00317  -0.00032  -0.04880
9 O 3py         -0.00406  -0.00302   0.00358   0.00125  -0.00537
[...]
pop of  7 C 3dx2-y2       0.00000
pop of  8 O 1s            0.00000
pop of  8 O 2s            0.00004
pop of  8 O 3s           -0.00000
pop of  8 O 2px           0.00017
pop of  8 O 2py           0.00013
pop of  8 O 2pz           0.00011
pop of  8 O 3px           0.00000
pop of  8 O 3py           0.00000
pop of  8 O 3pz          -0.00002
pop of  8 O 3dxy          0.00000
pop of  8 O 3dyz         -0.00000
pop of  8 O 3dz^2        -0.00000
pop of  8 O 3dxz          0.00000
pop of  8 O 3dx2-y2      -0.00000
pop of  9 O 1s           -0.00000
pop of  9 O 2s            0.00009
pop of  9 O 3s            0.00001
pop of  9 O 2px           0.00007
pop of  9 O 2py           0.00024
pop of  9 O 2pz           0.00003
pop of  9 O 3px          -0.00000
pop of  9 O 3py           0.00001
pop of  9 O 3pz          -0.00000
pop of  9 O 3dxy         -0.00000
pop of  9 O 3dyz         -0.00000
pop of  9 O 3dz^2         0.00000
pop of  9 O 3dxz          0.00000
pop of  9 O 3dx2-y2      -0.00000
pop of  10 H 1s           0.00000
pop of  10 H 2s          -0.00000
pop of  10 H 2px          0.00000
pop of  10 H 2py          0.00000
pop of  10 H 2pz          0.00000
pop of  11 H 1s           0.00000
pop of  11 H 2s          -0.00000
pop of  11 H 2px          0.00000
pop of  11 H 2py          0.00000
pop of  11 H 2pz          0.00000
pop of  12 H 1s          -0.00000
pop of  12 H 2s          -0.00000
pop of  12 H 2px         -0.00000
pop of  12 H 2py          0.00000
pop of  12 H 2pz         -0.00000
pop of  13 H 1s          -0.00000
pop of  13 H 2s          -0.00000
pop of  13 H 2px          0.00000
pop of  13 H 2py         -0.00000
pop of  13 H 2pz          0.00000
pop of  14 H 1s           0.00000
pop of  14 H 2s          -0.00000
pop of  14 H 2px          0.00000
pop of  14 H 2py          0.00000
pop of  14 H 2pz         -0.00000
pop of  15 N 1s          -0.00000
pop of  15 N 2s          -0.01113
pop of  15 N 3s          -0.00091
pop of  15 N 2px         -0.03919
pop of  15 N 2py         -0.08330
pop of  15 N 2pz         -0.13449
pop of  15 N 3px         -0.00031
pop of  15 N 3py         -0.00054
pop of  15 N 3pz         -0.00050
pop of  15 N 3dxy         0.00000
pop of  15 N 3dyz        -0.00006
pop of  15 N 3dz^2       -0.00010
pop of  15 N 3dxz        -0.00043
pop of  15 N 3dx2-y2     -0.00050
pop of  16 O 1s          -0.00000
pop of  16 O 2s          -0.00001
pop of  16 O 3s          -0.00010
pop of  16 O 2px         -0.17010
pop of  16 O 2py         -0.12642
pop of  16 O 2pz         -0.02703
pop of  16 O 3px         -0.00018
pop of  16 O 3py         -0.00043
pop of  16 O 3pz         -0.00070
pop of  16 O 3dxy        -0.00004
pop of  16 O 3dyz        -0.00008
pop of  16 O 3dz^2       -0.00015
pop of  16 O 3dxz        -0.00002
pop of  16 O 3dx2-y2     -0.00010
pop of  17 O 1s          -0.00000
pop of  17 O 2s          -0.00048
pop of  17 O 3s           0.00002
pop of  17 O 2px         -0.02231
pop of  17 O 2py         -0.01320
pop of  17 O 2pz         -0.02495
pop of  17 O 3px         -0.00031
pop of  17 O 3py         -0.00040
pop of  17 O 3pz         -0.00090
pop of  17 O 3dxy        -0.00003
pop of  17 O 3dyz        -0.00003
pop of  17 O 3dz^2       -0.00003
pop of  17 O 3dxz        -0.00008
pop of  17 O 3dx2-y2     -0.00008
pop of  18 N 1s           0.00000
pop of  18 N 2s           0.00007
pop of  18 N 3s          -0.00004
pop of  18 N 2px          0.00017
pop of  18 N 2py          0.00012
pop of  18 N 2pz         -0.00001
pop of  18 N 3px          0.00002
pop of  18 N 3py          0.00002
pop of  18 N 3pz         -0.00000
pop of  18 N 3dxy        -0.00000
pop of  18 N 3dyz         0.00000
pop of  18 N 3dz^2       -0.00000
pop of  18 N 3dxz        -0.00000
pop of  18 N 3dx2-y2     -0.00000
pop of  19 N 1s           0.00000
pop of  19 N 2s           0.00001
pop of  19 N 3s          -0.00001
pop of  19 N 2px          0.00001
pop of  19 N 2py          0.00001
pop of  19 N 2pz          0.00002
pop of  19 N 3px         -0.00000
pop of  19 N 3py         -0.00000
pop of  19 N 3pz         -0.00000
pop of  19 N 3dxy         0.00000
pop of  19 N 3dyz         0.00000
pop of  19 N 3dz^2        0.00000
pop of  19 N 3dxz        -0.00000
pop of  19 N 3dx2-y2      0.00000
pop of  20 N 1s          -0.00000
pop of  20 N 2s          -0.00000
pop of  20 N 3s          -0.00000
pop of  20 N 2px          0.00003
pop of  20 N 2py          0.00003
pop of  20 N 2pz          0.00005
pop of  20 N 3px          0.00000
pop of  20 N 3py          0.00000
pop of  20 N 3pz          0.00000
pop of  20 N 3dxy         0.00000
pop of  20 N 3dyz         0.00000
pop of  20 N 3dz^2        0.00000
pop of  20 N 3dxz         0.00000
pop of  20 N 3dx2-y2      0.00000
pop of  21 N 1s          -0.00000
pop of  21 N 2s           0.00002
pop of  21 N 3s          -0.00000
pop of  21 N 2px          0.00001
pop of  21 N 2py          0.00008
pop of  21 N 2pz          0.00004
pop of  21 N 3px         -0.00005
pop of  21 N 3py         -0.00000
pop of  21 N 3pz         -0.00002
pop of  21 N 3dxy        -0.00000
pop of  21 N 3dyz        -0.00000
pop of  21 N 3dz^2       -0.00002
pop of  21 N 3dxz        -0.00000
pop of  21 N 3dx2-y2     -0.00000
pop of  22 H 1s           0.00001
pop of  22 H 2s          -0.00001
pop of  22 H 2px          0.00000
pop of  22 H 2py         -0.00000
pop of  22 H 2pz         -0.00000
pop of  23 H 1s           0.00002
pop of  23 H 2s          -0.00000
pop of  23 H 2px         -0.00001
pop of  23 H 2py         -0.00000
pop of  23 H 2pz         -0.00000
pop of  24 H 1s          -0.00006
pop of  24 H 2s          -0.00001
pop of  24 H 2px         -0.00000
pop of  24 H 2py         -0.00000
pop of  24 H 2pz         -0.00000
pop of  25 N 1s          -0.00000
pop of  25 N 2s           0.00007
pop of  25 N 3s           0.00000
pop of  25 N 2px          0.00018
pop of  25 N 2py          0.00001
pop of  25 N 2pz          0.00008
pop of  25 N 3px          0.00002
pop of  25 N 3py         -0.00001
pop of  25 N 3pz         -0.00001
pop of  25 N 3dxy        -0.00000
pop of  25 N 3dyz        -0.00000
pop of  25 N 3dz^2       -0.00000
pop of  25 N 3dxz        -0.00000
pop of  25 N 3dx2-y2     -0.00000
pop of  26 H 1s           0.00000
pop of  26 H 2s          -0.00002
pop of  26 H 2px          0.00000
pop of  26 H 2py         -0.00000
pop of  26 H 2pz         -0.00000
pop of  27 H 1s          -0.00004
pop of  27 H 2s          -0.00002
pop of  27 H 2px         -0.00000
pop of  27 H 2py         -0.00002
pop of  27 H 2pz         -0.00000
pop of  28 H 1s          -0.00001
pop of  28 H 2s          -0.00000
pop of  28 H 2px         -0.00000
pop of  28 H 2py         -0.00000
pop of  28 H 2pz         -0.00000
 ** Mulliken atomic charges  **
charge of    0Er =     66.34204
charge of    1C =      6.00000
charge of    2C =      6.00000
charge of    3C =      6.00000
charge of    4C =      6.00000
charge of    5C =      6.00000
charge of    6C =      6.00000
charge of    7C =      5.99992
charge of    8O =      7.99958
charge of    9O =      7.99955
charge of   10H =      1.00000
charge of   11H =      1.00000
charge of   12H =      1.00000
charge of   13H =      1.00000
charge of   14H =      1.00000
charge of   15N =      7.27147
charge of   16O =      8.32536
charge of   17O =      8.06277
charge of   18N =      6.99965
charge of   19N =      6.99996
charge of   20N =      6.99989
charge of   21N =      6.99996
charge of   22H =      1.00000
charge of   23H =      1.00000
charge of   24H =      1.00008
charge of   25N =      6.99968
charge of   26H =      1.00001
charge of   27H =      1.00008
charge of   28H =      1.00001
spop of 0 Er 1s        -0.00000
spop of 0 Er 2s        -0.00000
spop of 0 Er 3s         0.00000
spop of 0 Er 4s        -0.00000
spop of 0 Er 5s        -0.00000
spop of 0 Er 6s        -0.00228
spop of 0 Er 7s         0.00000
spop of 0 Er 2px        0.00000
spop of 0 Er 2py        0.00000
spop of 0 Er 2pz        0.00000
spop of 0 Er 3px       -0.00000
spop of 0 Er 3py        0.00000
spop of 0 Er 3pz       -0.00000
spop of 0 Er 4px       -0.00000
spop of 0 Er 4py        0.00000
spop of 0 Er 4pz       -0.00000
spop of 0 Er 5px        0.00000
spop of 0 Er 5py        0.00000
spop of 0 Er 5pz       -0.00000
spop of 0 Er 6px       -0.00022
spop of 0 Er 6py       -0.00008
spop of 0 Er 6pz       -0.00031
spop of 0 Er 7px       -0.00001
spop of 0 Er 7py       -0.00000
spop of 0 Er 7pz       -0.00001
spop of 0 Er 3dxy       0.00000
spop of 0 Er 3dyz      -0.00000
spop of 0 Er 3dz^2      0.00000
spop of 0 Er 3dxz       0.00000
spop of 0 Er 3dx2-y2    0.00000
spop of 0 Er 4dxy       0.00000
spop of 0 Er 4dyz      -0.00000
spop of 0 Er 4dz^2     -0.00000
spop of 0 Er 4dxz       0.00000
spop of 0 Er 4dx2-y2    0.00000
spop of 0 Er 5dxy      -0.00026
spop of 0 Er 5dyz      -0.00019
spop of 0 Er 5dz^2     -0.00022
spop of 0 Er 5dxz      -0.00035
spop of 0 Er 5dx2-y2   -0.00007
spop of 0 Er 6dxy      -0.00002
spop of 0 Er 6dyz      -0.00001
spop of 0 Er 6dz^2     -0.00002
spop of 0 Er 6dxz      -0.00002
spop of 0 Er 6dx2-y2   -0.00001
spop of 0 Er 4f-3       0.21757
spop of 0 Er 4f-2       0.24758
spop of 0 Er 4f-1       0.12506
spop of 0 Er 4f+0       0.19816
spop of 0 Er 4f+1       0.39943
spop of 0 Er 4f+2       0.21179
spop of 0 Er 4f+3       0.25842
spop of 0 Er 5f-3       0.00047
spop of 0 Er 5f-2       0.00066
spop of 0 Er 5f-1       0.00033
spop of 0 Er 5f+0       0.00057
spop of 0 Er 5f+1       0.00097
spop of 0 Er 5f+2       0.00058
spop of 0 Er 5f+3       0.00049
spop of 0 Er 5g-4      -0.00000
spop of 0 Er 5g-3      -0.00000
spop of 0 Er 5g-2      -0.00000
spop of 0 Er 5g-1      -0.00000
spop of 0 Er 5g+0      -0.00000
spop of 0 Er 5g+1      -0.00000
spop of 0 Er 5g+2      -0.00000
spop of 0 Er 5g+3      -0.00000
spop of 0 Er 5g+4      -0.00000
spop of 1 C 1s         -0.00000
spop of 1 C 2s         -0.00000
spop of 1 C 3s         -0.00000
spop of 1 C 2px         0.00000
spop of 1 C 2py         0.00000
spop of 1 C 2pz         0.00000
spop of 1 C 3px         0.00000
spop of 1 C 3py        -0.00000
spop of 1 C 3pz         0.00000
spop of 1 C 3dxy       -0.00000
spop of 1 C 3dyz        0.00000
spop of 1 C 3dz^2       0.00000
spop of 1 C 3dxz       -0.00000
spop of 1 C 3dx2-y2     0.00000
spop of 2 C 1s          0.00000
spop of 2 C 2s          0.00000
spop of 2 C 3s         -0.00000
spop of 2 C 2px         0.00000
spop of 2 C 2py         0.00000
spop of 2 C 2pz         0.00000
spop of 2 C 3px        -0.00000
spop of 2 C 3py        -0.00000
spop of 2 C 3pz         0.00000
spop of 2 C 3dxy        0.00000
spop of 2 C 3dyz        0.00000
spop of 2 C 3dz^2      -0.00000
spop of 2 C 3dxz       -0.00000
spop of 2 C 3dx2-y2     0.00000
spop of 3 C 1s          0.00000
spop of 3 C 2s          0.00000
spop of 3 C 3s         -0.00000
spop of 3 C 2px        -0.00000
spop of 3 C 2py         0.00000
spop of 3 C 2pz         0.00000
spop of 3 C 3px        -0.00000
spop of 3 C 3py        -0.00000
spop of 3 C 3pz        -0.00000
spop of 3 C 3dxy        0.00000
spop of 3 C 3dyz       -0.00000
spop of 3 C 3dz^2       0.00000
spop of 3 C 3dxz       -0.00000
spop of 3 C 3dx2-y2    -0.00000
spop of 4 C 1s         -0.00000
spop of 4 C 2s         -0.00000
spop of 4 C 3s         -0.00000
spop of 4 C 2px        -0.00000
spop of 4 C 2py         0.00000
spop of 4 C 2pz        -0.00000
spop of 4 C 3px        -0.00000
spop of 4 C 3py        -0.00000
spop of 4 C 3pz         0.00000
spop of 4 C 3dxy        0.00000
spop of 4 C 3dyz       -0.00000
spop of 4 C 3dz^2       0.00000
spop of 4 C 3dxz        0.00000
spop of 4 C 3dx2-y2     0.00000
spop of 5 C 1s          0.00000
spop of 5 C 2s          0.00000
spop of 5 C 3s         -0.00000
spop of 5 C 2px         0.00000
spop of 5 C 2py         0.00000
spop of 5 C 2pz         0.00000
spop of 5 C 3px        -0.00000
spop of 5 C 3py        -0.00000
spop of 5 C 3pz         0.00000
spop of 5 C 3dxy        0.00000
spop of 5 C 3dyz       -0.00000
spop of 5 C 3dz^2       0.00000
spop of 5 C 3dxz        0.00000
spop of 5 C 3dx2-y2     0.00000
spop of 6 C 1s          0.00000
spop of 6 C 2s          0.00000
spop of 6 C 3s         -0.00000
spop of 6 C 2px         0.00000
spop of 6 C 2py         0.00000
spop of 6 C 2pz         0.00000
spop of 6 C 3px        -0.00000
spop of 6 C 3py        -0.00000
spop of 6 C 3pz         0.00000
spop of 6 C 3dxy       -0.00000
spop of 6 C 3dyz        0.00000
spop of 6 C 3dz^2       0.00000
spop of 6 C 3dxz       -0.00000
spop of 6 C 3dx2-y2     0.00000
spop of 7 C 1s         -0.00000
spop of 7 C 2s         -0.00000
spop of 7 C 3s         -0.00000
spop of 7 C 2px         0.00001
spop of 7 C 2py         0.00003
spop of 7 C 2pz         0.00005
spop of 7 C 3px        -0.00000
spop of 7 C 3py         0.00000
spop of 7 C 3pz        -0.00001
spop of 7 C 3dxy        0.00000
spop of 7 C 3dyz        0.00000
spop of 7 C 3dz^2       0.00000
spop of 7 C 3dxz        0.00000
spop of 7 C 3dx2-y2     0.00000
spop of 8 O 1s          0.00000
spop of 8 O 2s          0.00004
spop of 8 O 3s         -0.00000
spop of 8 O 2px         0.00017
spop of 8 O 2py         0.00013
spop of 8 O 2pz         0.00011
spop of 8 O 3px         0.00000
spop of 8 O 3py         0.00000
spop of 8 O 3pz        -0.00002
spop of 8 O 3dxy        0.00000
spop of 8 O 3dyz       -0.00000
spop of 8 O 3dz^2      -0.00000
spop of 8 O 3dxz        0.00000
spop of 8 O 3dx2-y2    -0.00000
spop of 9 O 1s         -0.00000
spop of 9 O 2s          0.00009
spop of 9 O 3s          0.00001
spop of 9 O 2px         0.00007
spop of 9 O 2py         0.00024
spop of 9 O 2pz         0.00003
spop of 9 O 3px        -0.00000
spop of 9 O 3py         0.00001
spop of 9 O 3pz        -0.00000
spop of 9 O 3dxy       -0.00000
spop of 9 O 3dyz       -0.00000
spop of 9 O 3dz^2       0.00000
spop of 9 O 3dxz        0.00000
spop of 9 O 3dx2-y2    -0.00000
spop of 10 H 1s         0.00000
spop of 10 H 2s        -0.00000
spop of 10 H 2px        0.00000
spop of 10 H 2py        0.00000
spop of 10 H 2pz        0.00000
spop of 11 H 1s         0.00000
spop of 11 H 2s        -0.00000
spop of 11 H 2px        0.00000
spop of 11 H 2py        0.00000
spop of 11 H 2pz        0.00000
spop of 12 H 1s        -0.00000
spop of 12 H 2s        -0.00000
spop of 12 H 2px       -0.00000
spop of 12 H 2py        0.00000
spop of 12 H 2pz       -0.00000
spop of 13 H 1s        -0.00000
spop of 13 H 2s        -0.00000
spop of 13 H 2px        0.00000
spop of 13 H 2py       -0.00000
spop of 13 H 2pz        0.00000
spop of 14 H 1s         0.00000
spop of 14 H 2s        -0.00000
spop of 14 H 2px        0.00000
spop of 14 H 2py        0.00000
spop of 14 H 2pz       -0.00000
spop of 15 N 1s        -0.00000
spop of 15 N 2s        -0.01113
spop of 15 N 3s        -0.00091
spop of 15 N 2px       -0.03919
spop of 15 N 2py       -0.08330
spop of 15 N 2pz       -0.13449
spop of 15 N 3px       -0.00031
spop of 15 N 3py       -0.00054
spop of 15 N 3pz       -0.00050
spop of 15 N 3dxy       0.00000
spop of 15 N 3dyz      -0.00006
spop of 15 N 3dz^2     -0.00010
spop of 15 N 3dxz      -0.00043
spop of 15 N 3dx2-y2   -0.00050
spop of 16 O 1s        -0.00000
spop of 16 O 2s        -0.00001
spop of 16 O 3s        -0.00010
spop of 16 O 2px       -0.17010
spop of 16 O 2py       -0.12642
spop of 16 O 2pz       -0.02703
spop of 16 O 3px       -0.00018
spop of 16 O 3py       -0.00043
spop of 16 O 3pz       -0.00070
spop of 16 O 3dxy      -0.00004
spop of 16 O 3dyz      -0.00008
spop of 16 O 3dz^2     -0.00015
spop of 16 O 3dxz      -0.00002
spop of 16 O 3dx2-y2   -0.00010
spop of 17 O 1s        -0.00000
spop of 17 O 2s        -0.00048
spop of 17 O 3s         0.00002
spop of 17 O 2px       -0.02231
spop of 17 O 2py       -0.01320
spop of 17 O 2pz       -0.02495
spop of 17 O 3px       -0.00031
spop of 17 O 3py       -0.00040
spop of 17 O 3pz       -0.00090
spop of 17 O 3dxy      -0.00003
spop of 17 O 3dyz      -0.00003
spop of 17 O 3dz^2     -0.00003
spop of 17 O 3dxz      -0.00008
spop of 17 O 3dx2-y2   -0.00008
spop of 18 N 1s         0.00000
spop of 18 N 2s         0.00007
spop of 18 N 3s        -0.00004
spop of 18 N 2px        0.00017
spop of 18 N 2py        0.00012
spop of 18 N 2pz       -0.00001
spop of 18 N 3px        0.00002
spop of 18 N 3py        0.00002
spop of 18 N 3pz       -0.00000
spop of 18 N 3dxy      -0.00000
spop of 18 N 3dyz       0.00000
spop of 18 N 3dz^2     -0.00000
spop of 18 N 3dxz      -0.00000
spop of 18 N 3dx2-y2   -0.00000
spop of 19 N 1s         0.00000
spop of 19 N 2s         0.00001
spop of 19 N 3s        -0.00001
spop of 19 N 2px        0.00001
spop of 19 N 2py        0.00001
spop of 19 N 2pz        0.00002
spop of 19 N 3px       -0.00000
spop of 19 N 3py       -0.00000
spop of 19 N 3pz       -0.00000
spop of 19 N 3dxy       0.00000
spop of 19 N 3dyz       0.00000
spop of 19 N 3dz^2      0.00000
spop of 19 N 3dxz      -0.00000
spop of 19 N 3dx2-y2    0.00000
spop of 20 N 1s        -0.00000
spop of 20 N 2s        -0.00000
spop of 20 N 3s        -0.00000
spop of 20 N 2px        0.00003
spop of 20 N 2py        0.00003
spop of 20 N 2pz        0.00005
spop of 20 N 3px        0.00000
spop of 20 N 3py        0.00000
spop of 20 N 3pz        0.00000
spop of 20 N 3dxy       0.00000
spop of 20 N 3dyz       0.00000
spop of 20 N 3dz^2      0.00000
spop of 20 N 3dxz       0.00000
spop of 20 N 3dx2-y2    0.00000
spop of 21 N 1s        -0.00000
spop of 21 N 2s         0.00002
spop of 21 N 3s        -0.00000
spop of 21 N 2px        0.00001
spop of 21 N 2py        0.00008
spop of 21 N 2pz        0.00004
spop of 21 N 3px       -0.00005
spop of 21 N 3py       -0.00000
spop of 21 N 3pz       -0.00002
spop of 21 N 3dxy      -0.00000
spop of 21 N 3dyz      -0.00000
spop of 21 N 3dz^2     -0.00002
spop of 21 N 3dxz      -0.00000
spop of 21 N 3dx2-y2   -0.00000
spop of 22 H 1s         0.00001
spop of 22 H 2s        -0.00001
spop of 22 H 2px        0.00000
spop of 22 H 2py       -0.00000
spop of 22 H 2pz       -0.00000
spop of 23 H 1s         0.00002
spop of 23 H 2s        -0.00000
spop of 23 H 2px       -0.00001
spop of 23 H 2py       -0.00000
spop of 23 H 2pz       -0.00000
spop of 24 H 1s        -0.00006
spop of 24 H 2s        -0.00001
spop of 24 H 2px       -0.00000
spop of 24 H 2py       -0.00000
spop of 24 H 2pz       -0.00000
spop of 25 N 1s        -0.00000
spop of 25 N 2s         0.00007
spop of 25 N 3s         0.00000
spop of 25 N 2px        0.00018
spop of 25 N 2py        0.00001
spop of 25 N 2pz        0.00008
spop of 25 N 3px        0.00002
spop of 25 N 3py       -0.00001
spop of 25 N 3pz       -0.00001
spop of 25 N 3dxy      -0.00000
spop of 25 N 3dyz      -0.00000
spop of 25 N 3dz^2     -0.00000
spop of 25 N 3dxz      -0.00000
spop of 25 N 3dx2-y2   -0.00000
spop of 26 H 1s         0.00000
spop of 26 H 2s        -0.00002
spop of 26 H 2px        0.00000
spop of 26 H 2py       -0.00000
spop of 26 H 2pz       -0.00000
spop of 27 H 1s        -0.00004
spop of 27 H 2s        -0.00002
spop of 27 H 2px       -0.00000
spop of 27 H 2py       -0.00002
spop of 27 H 2pz       -0.00000
spop of 28 H 1s        -0.00001
spop of 28 H 2s        -0.00000
spop of 28 H 2px       -0.00000
spop of 28 H 2py       -0.00000
spop of 28 H 2pz       -0.00000
Mulliken atomic spins:
spin of  0Er =      1.65796
spin of  1C =      0.00000
spin of  2C =      0.00000
spin of  3C =      0.00000
spin of  4C =     -0.00000
spin of  5C =      0.00000
spin of  6C =      0.00000
spin of  7C =      0.00008
spin of  8O =      0.00042
spin of  9O =      0.00045
spin of  10H =     -0.00000
spin of  11H =     -0.00000
spin of  12H =     -0.00000
spin of  13H =     -0.00000
spin of  14H =     -0.00000
spin of  15N =     -0.27147
spin of  16O =     -0.32536
spin of  17O =     -0.06277
spin of  18N =      0.00035
spin of  19N =      0.00004
spin of  20N =      0.00011
spin of  21N =      0.00004
spin of  22H =      0.00000
spin of  23H =     -0.00000
spin of  24H =     -0.00008
spin of  25N =      0.00032
spin of  26H =     -0.00001
spin of  27H =     -0.00008
spin of  28H =     -0.00001
